************************************************************
This is node26.cluster of cluster Pinconning.
Date: Sat Oct 21 20:44:23 PDT 2023
************************************************************
 Set GAUSS_MDEF to "110GB".
 Set GAUSS_PDEF to "16".
 Entering Gaussian System, Link 0=gdv
 Initial command:
 /opt/gaussian/gdv-20170407-i10+/gdv/local/l1.exe "/tmp/896553.1.16core.q/Gau-14544.inp" -scrdir="/tmp/896553.1.16core.q/"
 Default is to use a total of  16 processors:
                               16 via shared-memory
                                1 via Linda
 Entering Link 1 = /opt/gaussian/gdv-20170407-i10+/gdv/local/l1.exe PID=     14545.
  
 Copyright (c) 1988-2017, Gaussian, Inc.  All Rights Reserved.
  
 This is the private, development version of
 the Gaussian(R) DV system of programs. It is based on
 the Gaussian(R) 16 system (copyright 2016, Gaussian, Inc.),
 the Gaussian(R) 09 system (copyright 2009, Gaussian, Inc.),
 the Gaussian(R) 03 system (copyright 2003, Gaussian, Inc.),
 the Gaussian(R) 98 system (copyright 1998, Gaussian, Inc.),
 the Gaussian(R) 94 system (copyright 1995, Gaussian, Inc.),
 the Gaussian 92(TM) system (copyright 1992, Gaussian, Inc.),
 the Gaussian 90(TM) system (copyright 1990, Gaussian, Inc.),
 the Gaussian 88(TM) system (copyright 1988, Gaussian, Inc.),
 the Gaussian 86(TM) system (copyright 1986, Carnegie Mellon
 University), and the Gaussian 82(TM) system (copyright 1983,
 Carnegie Mellon University). Gaussian is a federally registered
 trademark of Gaussian, Inc.
  
 This software contains proprietary and confidential information,
 including trade secrets, belonging to Gaussian, Inc.
  
 This software is provided under written license and may be
 used, copied, transmitted, or stored only in accord with that
 written license.
  
 The following legend is applicable only to US Government
 contracts under FAR:
  
                    RESTRICTED RIGHTS LEGEND
  
 Use, reproduction and disclosure by the US Government is
 subject to restrictions as set forth in subparagraphs (a)
 and (c) of the Commercial Computer Software - Restricted
 Rights clause in FAR 52.227-19.
  
 Gaussian, Inc.
 340 Quinnipiac St., Bldg. 40, Wallingford CT 06492
  
  
 ---------------------------------------------------------------
 Warning -- This program may not be used in any manner that
 competes with the business of Gaussian, Inc. or will provide
 assistance to any competitor of Gaussian, Inc.  The licensee
 of this program is prohibited from giving any competitor of
 Gaussian, Inc. access to this program.  By using this program,
 the user acknowledges that Gaussian, Inc. is engaged in the
 business of creating and licensing software in the field of
 computational chemistry and represents and warrants to the
 licensee that it is not a competitor of Gaussian, Inc. and that
 it will not use this program in any manner prohibited above.
 ---------------------------------------------------------------
  

 Cite this work as:
 Gaussian Development Version, Revision I.10+,
 M. J. Frisch, G. W. Trucks, H. B. Schlegel, G. E. Scuseria, 
 M. A. Robb, J. R. Cheeseman, G. Scalmani, V. Barone, 
 G. A. Petersson, H. Nakatsuji, X. Li, M. Caricato, A. V. Marenich, 
 J. Bloino, B. G. Janesko, R. Gomperts, B. Mennucci, H. P. Hratchian, 
 J. V. Ortiz, A. F. Izmaylov, J. L. Sonnenberg, D. Williams-Young, 
 F. Ding, F. Lipparini, F. Egidi, J. Goings, B. Peng, A. Petrone, 
 T. Henderson, D. Ranasinghe, V. G. Zakrzewski, J. Gao, N. Rega, 
 G. Zheng, W. Liang, M. Hada, M. Ehara, K. Toyota, R. Fukuda, 
 J. Hasegawa, M. Ishida, T. Nakajima, Y. Honda, O. Kitao, H. Nakai, 
 T. Vreven, K. Throssell, J. A. Montgomery, Jr., J. E. Peralta, 
 F. Ogliaro, M. J. Bearpark, J. J. Heyd, E. N. Brothers, K. N. Kudin, 
 V. N. Staroverov, T. A. Keith, R. Kobayashi, J. Normand, 
 K. Raghavachari, A. P. Rendell, J. C. Burant, S. S. Iyengar, 
 J. Tomasi, M. Cossi, J. M. Millam, M. Klene, C. Adamo, R. Cammi, 
 J. W. Ochterski, R. L. Martin, K. Morokuma, O. Farkas, 
 J. B. Foresman, and D. J. Fox, Gaussian, Inc., Wallingford CT, 2016.
 
 *******************************************
 Gaussian DV:  ES64L-GDVRevI.10+ 27-Mar-2017
                 21-Oct-2023 
 *******************************************
 %chk=nh2_5mem_no2_gs.chk
 ------------------------------------------------
 # Geom=AllCheck freq=(readfc,FC,readFCHT) nosymm
 ------------------------------------------------
 1/29=7,38=1,172=1/1;
 2/12=2,15=1,40=1/2;
 7/8=1,25=11,30=1,71=10,121=1/16,18;
 99/5=5/99;
 Structure from the checkpoint file:  "nh2_5mem_no2_gs.chk"
 ---------------------
 Ground State Opt_Freq
 ---------------------
 Charge =  0 Multiplicity = 1
 Redundant internal coordinates found in file.  (old form).
 C,0,0.4717955144,-0.1342588556,0.0870482498
 C,0,-0.5990126479,0.9076928121,0.1499399336
 N,0,1.8274309358,0.150736292,0.1239020083
 C,0,-1.8453540094,0.0610230453,0.0724987037
 H,0,-0.5520451086,1.6199825993,-0.6807383322
 H,0,-0.5743291765,1.4910821367,1.0766118887
 C,0,-0.0906979801,-1.3777550448,-0.0111960544
 O,0,2.651607709,-0.776478124,0.0664680006
 O,0,2.170281701,1.3422248335,0.2147762762
 N,0,-3.0663384096,0.6010682245,0.0975433957
 C,0,-1.5034285494,-1.2764964717,-0.0212355556
 H,0,0.4709841909,-2.3013519853,-0.0717940123
 H,0,-3.8936300402,0.0250071369,0.0437771666
 H,0,-3.200377935,1.5984592042,0.1678254827
 H,0,-2.1959675746,-2.1042983531,-0.0903075313
 Recover connectivity data from disk.
                           ----------------------------
                           !    Current Parameters    !
                           ! (Angstroms and Degrees)  !
 --------------------------                            --------------------------
 ! Name  Definition              Value          Derivative Info.                !
 --------------------------------------------------------------------------------
 ! R1    R(1,2)                  1.4954         estimate D2E/DX2                !
 ! R2    R(1,3)                  1.3858         estimate D2E/DX2                !
 ! R3    R(1,7)                  1.3683         estimate D2E/DX2                !
 ! R4    R(2,4)                  1.5087         estimate D2E/DX2                !
 ! R5    R(2,5)                  1.0953         estimate D2E/DX2                !
 ! R6    R(2,6)                  1.0953         estimate D2E/DX2                !
 ! R7    R(3,8)                  1.2419         estimate D2E/DX2                !
 ! R8    R(3,9)                  1.2432         estimate D2E/DX2                !
 ! R9    R(4,10)                 1.3353         estimate D2E/DX2                !
 ! R10   R(4,11)                 1.3837         estimate D2E/DX2                !
 ! R11   R(7,11)                 1.4164         estimate D2E/DX2                !
 ! R12   R(7,12)                 1.0827         estimate D2E/DX2                !
 ! R13   R(10,13)                1.0095         estimate D2E/DX2                !
 ! R14   R(10,14)                1.0088         estimate D2E/DX2                !
 ! R15   R(11,15)                1.0815         estimate D2E/DX2                !
 ! A1    A(2,1,3)              123.7853         estimate D2E/DX2                !
 ! A2    A(2,1,7)              109.9902         estimate D2E/DX2                !
 ! A3    A(3,1,7)              126.2245         estimate D2E/DX2                !
 ! A4    A(1,2,4)              101.4412         estimate D2E/DX2                !
 ! A5    A(1,2,5)              112.9876         estimate D2E/DX2                !
 ! A6    A(1,2,6)              112.9896         estimate D2E/DX2                !
 ! A7    A(4,2,5)              111.1897         estimate D2E/DX2                !
 ! A8    A(4,2,6)              111.1585         estimate D2E/DX2                !
 ! A9    A(5,2,6)              107.1162         estimate D2E/DX2                !
 ! A10   A(1,3,8)              119.6329         estimate D2E/DX2                !
 ! A11   A(1,3,9)              117.9597         estimate D2E/DX2                !
 ! A12   A(8,3,9)              122.4074         estimate D2E/DX2                !
 ! A13   A(2,4,10)             121.8325         estimate D2E/DX2                !
 ! A14   A(2,4,11)             109.9863         estimate D2E/DX2                !
 ! A15   A(10,4,11)            128.1812         estimate D2E/DX2                !
 ! A16   A(1,7,11)             110.2159         estimate D2E/DX2                !
 ! A17   A(1,7,12)             124.4714         estimate D2E/DX2                !
 ! A18   A(11,7,12)            125.3127         estimate D2E/DX2                !
 ! A19   A(4,10,13)            121.1673         estimate D2E/DX2                !
 ! A20   A(4,10,14)            121.5104         estimate D2E/DX2                !
 ! A21   A(13,10,14)           117.3221         estimate D2E/DX2                !
 ! A22   A(4,11,7)             108.3664         estimate D2E/DX2                !
 ! A23   A(4,11,15)            125.8709         estimate D2E/DX2                !
 ! A24   A(7,11,15)            125.7627         estimate D2E/DX2                !
 ! D1    D(3,1,2,4)            179.9572         estimate D2E/DX2                !
 ! D2    D(3,1,2,5)             60.8495         estimate D2E/DX2                !
 ! D3    D(3,1,2,6)            -60.971          estimate D2E/DX2                !
 ! D4    D(7,1,2,4)              0.0127         estimate D2E/DX2                !
 ! D5    D(7,1,2,5)           -119.095          estimate D2E/DX2                !
 ! D6    D(7,1,2,6)            119.0844         estimate D2E/DX2                !
 ! D7    D(2,1,3,8)            179.9965         estimate D2E/DX2                !
 ! D8    D(2,1,3,9)              0.0142         estimate D2E/DX2                !
 ! D9    D(7,1,3,8)             -0.0681         estimate D2E/DX2                !
 ! D10   D(7,1,3,9)            179.9496         estimate D2E/DX2                !
 ! D11   D(2,1,7,11)            -0.0145         estimate D2E/DX2                !
 ! D12   D(2,1,7,12)          -179.998          estimate D2E/DX2                !
 ! D13   D(3,1,7,11)          -179.9573         estimate D2E/DX2                !
 ! D14   D(3,1,7,12)             0.0592         estimate D2E/DX2                !
 ! D15   D(1,2,4,10)           179.963          estimate D2E/DX2                !
 ! D16   D(1,2,4,11)            -0.0067         estimate D2E/DX2                !
 ! D17   D(5,2,4,10)           -59.6525         estimate D2E/DX2                !
 ! D18   D(5,2,4,11)           120.3778         estimate D2E/DX2                !
 ! D19   D(6,2,4,10)            59.5905         estimate D2E/DX2                !
 ! D20   D(6,2,4,11)          -120.3792         estimate D2E/DX2                !
 ! D21   D(2,4,10,13)          179.9123         estimate D2E/DX2                !
 ! D22   D(2,4,10,14)            0.1057         estimate D2E/DX2                !
 ! D23   D(11,4,10,13)          -0.124          estimate D2E/DX2                !
 ! D24   D(11,4,10,14)        -179.9305         estimate D2E/DX2                !
 ! D25   D(2,4,11,7)            -0.0013         estimate D2E/DX2                !
 ! D26   D(2,4,11,15)          179.9914         estimate D2E/DX2                !
 ! D27   D(10,4,11,7)         -179.9685         estimate D2E/DX2                !
 ! D28   D(10,4,11,15)           0.0241         estimate D2E/DX2                !
 ! D29   D(1,7,11,4)             0.0098         estimate D2E/DX2                !
 ! D30   D(1,7,11,15)         -179.9828         estimate D2E/DX2                !
 ! D31   D(12,7,11,4)          179.9932         estimate D2E/DX2                !
 ! D32   D(12,7,11,15)           0.0005         estimate D2E/DX2                !
 --------------------------------------------------------------------------------
                          Input orientation:                          
 ---------------------------------------------------------------------
 Center     Atomic      Atomic             Coordinates (Angstroms)
 Number     Number       Type             X           Y           Z
 ---------------------------------------------------------------------
      1          6           0        0.471796   -0.134259    0.087048
      2          6           0       -0.599013    0.907693    0.149940
      3          7           0        1.827431    0.150736    0.123902
      4          6           0       -1.845354    0.061023    0.072499
      5          1           0       -0.552045    1.619983   -0.680738
      6          1           0       -0.574329    1.491082    1.076612
      7          6           0       -0.090698   -1.377755   -0.011196
      8          8           0        2.651608   -0.776478    0.066468
      9          8           0        2.170282    1.342225    0.214776
     10          7           0       -3.066338    0.601068    0.097543
     11          6           0       -1.503429   -1.276496   -0.021236
     12          1           0        0.470984   -2.301352   -0.071794
     13          1           0       -3.893630    0.025007    0.043777
     14          1           0       -3.200378    1.598459    0.167825
     15          1           0       -2.195968   -2.104298   -0.090308
 ---------------------------------------------------------------------
                    Distance matrix (angstroms):
                    1          2          3          4          5
     1  C    0.000000
     2  C    1.495409   0.000000
     3  N    1.385759   2.541907   0.000000
     4  C    2.325409   1.508713   3.674240   0.000000
     5  H    2.171430   1.095258   2.909989   2.161104   0.000000
     6  H    2.171485   1.095296   2.910779   2.160744   1.762212
     7  C    1.368332   2.346832   2.456370   2.270662   3.106052
     8  O    2.272543   3.661957   1.241891   4.574288   4.069979
     9  O    2.254146   2.803928   1.243161   4.217470   2.879264
    10  N    3.613753   2.486858   4.914516   1.335320   2.822336
    11  C    2.284282   2.370222   3.626663   1.383712   3.119241
    12  H    2.172907   3.389989   2.809089   3.311655   4.098081
    13  H    4.368544   3.412464   5.723003   2.048794   3.772938
    14  H    4.061243   2.691576   5.232274   2.051557   2.781041
    15  H    3.321065   3.417612   4.617229   2.199557   4.113558
                    6          7          8          9         10
     6  H    0.000000
     7  C    3.106035   0.000000
     8  O    4.070490   2.808524   0.000000
     9  O    2.880592   3.544204   2.177745   0.000000
    10  N    2.821491   3.575193   5.881625   5.290108   0.000000
    11  C    3.118972   1.416390   4.185933   4.517693   2.445822
    12  H    4.098057   1.082677   2.664484   4.030557   4.578796
    13  H    3.772782   4.053771   6.594166   6.207683   1.009529
    14  H    2.780927   4.308133   6.316355   5.376974   1.008809
    15  H    4.113171   2.228516   5.028585   5.570972   2.848130
                   11         12         13         14         15
    11  C    0.000000
    12  H    2.225127   0.000000
    13  H    2.722352   4.947238   0.000000
    14  H    3.343763   5.361422   1.723873   0.000000
    15  H    1.081498   2.674286   2.726532   3.845242   0.000000
 Symmetry turned off by external request.
 Stoichiometry    C5H6N2O2
 Framework group  C1[X(C5H6N2O2)]
 Deg. of freedom    39
 Full point group                 C1      NOp   1
 Rotational constants (GHZ):           4.3695959           1.0663699           0.8617553
 Electric field and nuclear coordinate derivatives read from checkpoint file.
 Full mass-weighted force constant matrix:
 Low frequencies ---  -14.6820  -10.1821   -0.0011   -0.0002    0.0007    9.6490
 Low frequencies ---  104.6169  136.0080  194.8798
 Diagonal vibrational polarizability:
      104.3246268      11.1161419     198.7146222
 Harmonic frequencies (cm**-1), IR intensities (KM/Mole), Raman scattering
 activities (A**4/AMU), depolarization ratios for plane and unpolarized
 incident light, reduced masses (AMU), force constants (mDyne/A),
 and normal coordinates:
                      1                      2                      3
                      A                      A                      A
 Frequencies --    104.6150               136.0005               194.8682
 Red. masses --      8.2761                 4.2331                 6.0799
 Frc consts  --      0.0534                 0.0461                 0.1360
 IR Inten    --      0.0305                 0.9090                 5.7005
  Atom  AN      X      Y      Z        X      Y      Z        X      Y      Z
     1   6     0.00   0.00  -0.06    -0.00  -0.02   0.27    -0.01   0.22   0.02
     2   6    -0.00  -0.00   0.02    -0.00  -0.02   0.32    -0.12   0.15   0.01
     3   7    -0.00  -0.00   0.02    -0.00   0.00  -0.00     0.03   0.02   0.00
     4   6    -0.00  -0.00   0.01     0.00  -0.00   0.00    -0.05  -0.00  -0.00
     5   1    -0.03   0.03   0.04     0.13   0.14   0.47    -0.19   0.15   0.01
     6   1     0.03  -0.03   0.04    -0.14  -0.21   0.44    -0.19   0.15   0.01
     7   6     0.00   0.02  -0.24    -0.00  -0.00   0.06     0.07   0.18   0.01
     8   8    -0.01  -0.03   0.47     0.00   0.00  -0.06    -0.18  -0.18  -0.02
     9   8     0.00   0.02  -0.33     0.00   0.02  -0.22     0.33  -0.07  -0.00
    10   7    -0.00  -0.02   0.27     0.00   0.01  -0.18    -0.15  -0.23  -0.02
    11   6     0.00   0.02  -0.25     0.00   0.01  -0.07     0.08   0.04   0.00
    12   1     0.00   0.03  -0.36     0.00   0.01  -0.08     0.17   0.24   0.02
    13   1    -0.00  -0.02   0.23     0.00   0.03  -0.35    -0.02  -0.42  -0.03
    14   1    -0.00  -0.03   0.39     0.00   0.01  -0.13    -0.37  -0.26  -0.02
    15   1     0.00   0.03  -0.36     0.00   0.02  -0.28     0.16  -0.02   0.00
                      4                      5                      6
                      A                      A                      A
 Frequencies --    218.5485               250.8770               382.5073
 Red. masses --      1.4245                 2.3221                 3.6814
 Frc consts  --      0.0401                 0.0861                 0.3174
 IR Inten    --    313.6713                32.3949                 3.0884
  Atom  AN      X      Y      Z        X      Y      Z        X      Y      Z
     1   6     0.00   0.00  -0.06    -0.00  -0.02   0.24     0.04  -0.07  -0.00
     2   6    -0.00  -0.00   0.03     0.00   0.01  -0.11     0.08   0.06   0.01
     3   7     0.00   0.00  -0.01    -0.00  -0.00   0.05     0.09  -0.07  -0.00
     4   6    -0.00  -0.00   0.04     0.00   0.01  -0.08    -0.03   0.15   0.01
     5   1    -0.04   0.07   0.09     0.12  -0.27  -0.34     0.17   0.06   0.01
     6   1     0.04  -0.08   0.08    -0.11   0.32  -0.30     0.17   0.06   0.00
     7   6     0.00   0.00  -0.02    -0.00  -0.01   0.09    -0.11  -0.01  -0.00
     8   8    -0.00  -0.00   0.02     0.00   0.01  -0.07     0.23   0.04   0.01
     9   8     0.00   0.00  -0.00    -0.00   0.00  -0.01    -0.03  -0.04  -0.00
    10   7     0.00   0.01  -0.15    -0.00  -0.00   0.05    -0.18  -0.15  -0.01
    11   6    -0.00  -0.00   0.04     0.00   0.01  -0.15    -0.09   0.16   0.01
    12   1     0.00   0.00  -0.02    -0.00  -0.01   0.11    -0.25  -0.09  -0.01
    13   1    -0.01  -0.05   0.62    -0.01  -0.03   0.44     0.04  -0.47  -0.03
    14   1    -0.01  -0.05   0.73    -0.01  -0.03   0.48    -0.56  -0.20  -0.02
    15   1    -0.00  -0.00   0.07     0.00   0.01  -0.20    -0.18   0.23   0.01
                      7                      8                      9
                      A                      A                      A
 Frequencies --    400.3005               426.5466               490.5344
 Red. masses --      1.8798                 5.6731                 1.2616
 Frc consts  --      0.1775                 0.6081                 0.1789
 IR Inten    --     23.6655                10.9917                 1.0773
  Atom  AN      X      Y      Z        X      Y      Z        X      Y      Z
     1   6    -0.00  -0.01   0.09     0.01  -0.01  -0.00    -0.00  -0.01   0.08
     2   6     0.00   0.00  -0.01    -0.19  -0.14  -0.01    -0.00   0.00  -0.00
     3   7    -0.00  -0.00   0.02     0.16   0.04   0.01    -0.00  -0.00   0.00
     4   6    -0.00  -0.01   0.17    -0.23  -0.13  -0.01     0.00   0.00  -0.05
     5   1    -0.09  -0.38  -0.35    -0.28  -0.13  -0.01     0.15   0.03   0.03
     6   1     0.09   0.43  -0.29    -0.28  -0.12  -0.02    -0.15  -0.03   0.02
     7   6     0.00   0.01  -0.16    -0.06   0.00  -0.00     0.00   0.01  -0.10
     8   8     0.00  -0.00   0.00     0.22   0.10   0.01    -0.00  -0.00   0.00
     9   8     0.00   0.00  -0.01     0.27   0.00   0.00     0.00  -0.00   0.00
    10   7     0.00   0.01  -0.07    -0.14   0.16   0.01     0.00   0.00  -0.00
    11   6    -0.00  -0.01   0.09    -0.13  -0.11  -0.01    -0.00  -0.01   0.07
    12   1     0.01   0.04  -0.48    -0.09  -0.02  -0.00     0.00   0.02  -0.31
    13   1     0.00   0.03  -0.36    -0.34   0.45   0.03    -0.01  -0.05   0.69
    14   1    -0.00  -0.01   0.10     0.19   0.21   0.02     0.01   0.04  -0.59
    15   1     0.00   0.00  -0.03    -0.01  -0.21  -0.02    -0.00  -0.01   0.11
                     10                     11                     12
                      A                      A                      A
 Frequencies --    576.9449               605.7604               678.8006
 Red. masses --      5.5838                 1.7022                 5.5648
 Frc consts  --      1.0951                 0.3680                 1.5107
 IR Inten    --     17.8993                 0.0151               186.9892
  Atom  AN      X      Y      Z        X      Y      Z        X      Y      Z
     1   6     0.01  -0.15  -0.01     0.00   0.01  -0.08    -0.12   0.12   0.01
     2   6     0.15  -0.13  -0.01    -0.00  -0.00   0.03    -0.08   0.18   0.01
     3   7    -0.04   0.20   0.01     0.00   0.00  -0.01    -0.05  -0.05  -0.00
     4   6     0.07   0.05   0.00    -0.00  -0.01   0.18     0.16  -0.08  -0.00
     5   1     0.26  -0.13  -0.00    -0.21  -0.14  -0.11    -0.29   0.17  -0.01
     6   1     0.26  -0.13  -0.01     0.21   0.15  -0.08    -0.29   0.17   0.03
     7   6    -0.16  -0.18  -0.02    -0.00  -0.01   0.09    -0.26   0.10   0.00
     8   8    -0.21   0.09   0.00     0.00   0.00  -0.00     0.13   0.09   0.01
     9   8     0.27   0.16   0.01    -0.00  -0.00   0.00     0.06  -0.08  -0.01
    10   7     0.05  -0.07  -0.00     0.00   0.00  -0.04     0.30  -0.13  -0.01
    11   6    -0.15   0.00  -0.00     0.00   0.01  -0.11    -0.20  -0.13  -0.01
    12   1    -0.37  -0.31  -0.03    -0.00  -0.01   0.18    -0.16   0.17   0.01
    13   1     0.17  -0.24  -0.02    -0.01  -0.03   0.41     0.32  -0.15  -0.01
    14   1    -0.14  -0.10  -0.01     0.01   0.04  -0.49     0.30  -0.13  -0.01
    15   1    -0.33   0.15   0.01     0.01   0.04  -0.58    -0.33  -0.02  -0.00
                     13                     14                     15
                      A                      A                      A
 Frequencies --    758.3133               806.9379               810.9209
 Red. masses --     10.3330                 1.3749                10.7497
 Frc consts  --      3.5008                 0.5275                 4.1649
 IR Inten    --     28.1482                55.6345                 2.0173
  Atom  AN      X      Y      Z        X      Y      Z        X      Y      Z
     1   6     0.00   0.01  -0.16    -0.00  -0.00   0.01    -0.27  -0.11  -0.01
     2   6     0.00   0.01  -0.12    -0.00  -0.00   0.02    -0.12   0.11   0.01
     3   7    -0.01  -0.05   0.74    -0.00  -0.00   0.00    -0.32  -0.07  -0.01
     4   6    -0.00  -0.00   0.04    -0.00  -0.01   0.08     0.04   0.12   0.01
     5   1    -0.14   0.27   0.11    -0.06  -0.05  -0.02     0.02   0.08  -0.01
     6   1     0.14  -0.28   0.07     0.06   0.06  -0.01     0.02   0.08   0.02
     7   6     0.00   0.01  -0.12     0.00   0.00  -0.03     0.21  -0.27  -0.02
     8   8     0.00   0.02  -0.22     0.00   0.00  -0.00     0.02   0.40   0.03
     9   8     0.00   0.02  -0.22     0.00   0.00  -0.00     0.20  -0.36  -0.02
    10   7     0.00  -0.00   0.00     0.00   0.00  -0.02    -0.03   0.05   0.00
    11   6    -0.00  -0.00   0.04     0.00   0.01  -0.15     0.23   0.10   0.01
    12   1    -0.00  -0.02   0.26    -0.00  -0.01   0.20     0.36  -0.18  -0.01
    13   1    -0.00  -0.01   0.07    -0.00  -0.01   0.07     0.02  -0.02  -0.00
    14   1     0.00   0.01  -0.08     0.00   0.01  -0.14    -0.12   0.04   0.00
    15   1     0.00   0.00  -0.03    -0.01  -0.07   0.94     0.08   0.23   0.02
                     16                     17                     18
                      A                      A                      A
 Frequencies --    896.1385               945.8374               948.5315
 Red. masses --      2.7742                 5.0453                 2.3697
 Frc consts  --      1.3126                 2.6593                 1.2562
 IR Inten    --      1.5045                16.8446                 0.0059
  Atom  AN      X      Y      Z        X      Y      Z        X      Y      Z
     1   6    -0.02   0.04   0.00    -0.04  -0.08  -0.01     0.00   0.01  -0.15
     2   6     0.26   0.10   0.01    -0.05   0.41   0.03    -0.00  -0.02   0.25
     3   7    -0.05  -0.01  -0.00     0.08   0.03   0.00    -0.00  -0.00   0.05
     4   6    -0.06  -0.08  -0.01    -0.01  -0.01  -0.00     0.00   0.01  -0.18
     5   1     0.50   0.09   0.01    -0.06   0.40   0.01     0.01  -0.59  -0.26
     6   1     0.50   0.09   0.02    -0.06   0.42   0.04    -0.00   0.62  -0.17
     7   6    -0.03   0.09   0.01     0.05  -0.32  -0.02    -0.00  -0.00   0.05
     8   8    -0.02   0.07   0.00     0.03  -0.12  -0.01    -0.00   0.00  -0.01
     9   8     0.02  -0.06  -0.00     0.00   0.15   0.01     0.00  -0.00  -0.01
    10   7    -0.10   0.00  -0.00    -0.06   0.00  -0.00     0.00  -0.00   0.02
    11   6    -0.06  -0.17  -0.01     0.01  -0.13  -0.01    -0.00  -0.00   0.02
    12   1     0.21   0.23   0.02    -0.02  -0.38  -0.03     0.00   0.01  -0.14
    13   1    -0.24   0.19   0.01    -0.22   0.23   0.02     0.00  -0.01   0.09
    14   1     0.09   0.03   0.00     0.17   0.04   0.00    -0.00   0.00  -0.01
    15   1     0.13  -0.34  -0.02    -0.17   0.01   0.00    -0.00  -0.01   0.14
                     19                     20                     21
                      A                      A                      A
 Frequencies --   1006.5091              1044.6114              1073.7695
 Red. masses --      1.4159                 1.4080                 1.3444
 Frc consts  --      0.8451                 0.9052                 0.9133
 IR Inten    --      1.1329               305.7244               387.0637
  Atom  AN      X      Y      Z        X      Y      Z        X      Y      Z
     1   6    -0.00  -0.00   0.04    -0.05   0.01  -0.00    -0.02  -0.00  -0.00
     2   6    -0.00  -0.00   0.05    -0.01  -0.03  -0.00    -0.00  -0.01  -0.00
     3   7     0.00   0.00  -0.03     0.03   0.01   0.00     0.02   0.01   0.00
     4   6     0.00   0.00  -0.03     0.03   0.02   0.00    -0.00  -0.05  -0.00
     5   1    -0.02  -0.11  -0.04    -0.00  -0.03  -0.00     0.11  -0.03  -0.00
     6   1     0.02   0.11  -0.03    -0.00  -0.03  -0.00     0.11  -0.03   0.00
     7   6     0.00   0.01  -0.17     0.08  -0.03  -0.00     0.05   0.01   0.00
     8   8    -0.00  -0.00   0.01     0.01  -0.02  -0.00    -0.01   0.00   0.00
     9   8    -0.00  -0.00   0.00    -0.00   0.01   0.00    -0.01  -0.01  -0.00
    10   7    -0.00  -0.00   0.00    -0.00   0.06   0.00    -0.01  -0.10  -0.01
    11   6    -0.00  -0.00   0.06    -0.11  -0.07  -0.01    -0.04   0.11   0.01
    12   1    -0.01  -0.07   0.95     0.67   0.32   0.03     0.22   0.11   0.01
    13   1    -0.00  -0.00   0.03     0.21  -0.24  -0.02    -0.32   0.35   0.02
    14   1     0.00   0.00  -0.03    -0.37   0.01  -0.00     0.53  -0.03   0.00
    15   1     0.00   0.01  -0.15    -0.39   0.15   0.01    -0.43   0.44   0.03
                     22                     23                     24
                      A                      A                      A
 Frequencies --   1173.8217              1203.7453              1278.6888
 Red. masses --      1.1249                 2.4436                 1.6200
 Frc consts  --      0.9132                 2.0862                 1.5606
 IR Inten    --      0.8914               179.4697               478.1944
  Atom  AN      X      Y      Z        X      Y      Z        X      Y      Z
     1   6     0.00   0.00  -0.06     0.21  -0.01   0.00     0.02   0.05   0.00
     2   6    -0.00   0.00  -0.00     0.10   0.05   0.00    -0.12   0.03   0.00
     3   7    -0.00  -0.00   0.01     0.06   0.01   0.00     0.07   0.02   0.00
     4   6    -0.00  -0.01   0.08     0.03  -0.04  -0.00    -0.03  -0.08  -0.01
     5   1     0.70  -0.06  -0.01    -0.59   0.10   0.00     0.48   0.01   0.02
     6   1    -0.70   0.06  -0.02    -0.59   0.10  -0.00     0.48   0.02  -0.01
     7   6    -0.00  -0.00   0.00     0.06   0.01   0.00     0.10   0.03   0.00
     8   8     0.00  -0.00  -0.00    -0.11   0.10   0.01    -0.04   0.03   0.00
     9   8     0.00   0.00  -0.00    -0.04  -0.12  -0.01    -0.03  -0.06  -0.00
    10   7     0.00   0.00  -0.01    -0.04   0.02   0.00     0.04   0.03   0.00
    11   6     0.00   0.00  -0.02    -0.07  -0.03  -0.00    -0.04  -0.03  -0.00
    12   1    -0.00  -0.01   0.08    -0.17  -0.15  -0.01    -0.46  -0.31  -0.03
    13   1     0.00   0.00  -0.04    -0.05   0.02   0.00     0.18  -0.17  -0.01
    14   1    -0.00  -0.00   0.02    -0.10   0.01   0.00    -0.16   0.00  -0.00
    15   1     0.00   0.00  -0.04    -0.29   0.14   0.01    -0.24   0.13   0.01
                     25                     26                     27
                      A                      A                      A
 Frequencies --   1313.3031              1396.1076              1454.9983
 Red. masses --      2.3707                 3.6506                 4.0010
 Frc consts  --      2.4091                 4.1924                 4.9905
 IR Inten    --   1334.4853              1616.6784               372.5096
  Atom  AN      X      Y      Z        X      Y      Z        X      Y      Z
     1   6    -0.01   0.18   0.01     0.35  -0.06  -0.00    -0.06  -0.03  -0.00
     2   6     0.09  -0.07  -0.00    -0.19  -0.01  -0.00    -0.12   0.02  -0.00
     3   7    -0.14  -0.03  -0.00    -0.13  -0.04  -0.00     0.19   0.03   0.00
     4   6     0.02  -0.01  -0.00    -0.06   0.14   0.01     0.30   0.10   0.01
     5   1    -0.10  -0.06  -0.01     0.30   0.27   0.26     0.14  -0.34  -0.28
     6   1    -0.10  -0.06  -0.01     0.31   0.30  -0.21     0.13  -0.38   0.23
     7   6    -0.01  -0.01  -0.00    -0.11   0.01  -0.00    -0.16   0.04   0.00
     8   8     0.08  -0.05  -0.00    -0.01   0.02   0.00    -0.07   0.05   0.00
     9   8     0.02   0.05   0.00     0.02   0.01   0.00    -0.04  -0.06  -0.00
    10   7    -0.06   0.04   0.00     0.02  -0.02  -0.00    -0.13   0.01  -0.00
    11   6     0.13  -0.12  -0.01     0.07  -0.12  -0.01     0.15  -0.15  -0.01
    12   1    -0.36  -0.22  -0.02     0.36   0.29   0.03    -0.02   0.15   0.01
    13   1    -0.08   0.05   0.00    -0.03   0.04   0.00    -0.37   0.34   0.02
    14   1    -0.16   0.04   0.00     0.12  -0.00   0.00    -0.15   0.02  -0.00
    15   1    -0.62   0.50   0.03    -0.23   0.12   0.01    -0.11   0.07   0.00
                     28                     29                     30
                      A                      A                      A
 Frequencies --   1459.1957              1465.6278              1547.5851
 Red. masses --      2.2597                 1.7780                 6.3434
 Frc consts  --      2.8348                 2.2503                 8.9512
 IR Inten    --     77.7113               318.3914               548.9654
  Atom  AN      X      Y      Z        X      Y      Z        X      Y      Z
     1   6    -0.04   0.13   0.01    -0.09  -0.06  -0.01     0.01   0.23   0.02
     2   6    -0.02  -0.14  -0.01     0.03  -0.06  -0.00     0.07  -0.02  -0.00
     3   7     0.02   0.05   0.00     0.09   0.00   0.00     0.13   0.32   0.03
     4   6     0.13   0.15   0.01    -0.02  -0.11  -0.01    -0.27   0.10   0.00
     5   1     0.01   0.36   0.41    -0.02   0.47   0.43     0.04  -0.17  -0.14
     6   1     0.02   0.42  -0.35    -0.01   0.53  -0.36     0.03  -0.19   0.11
     7   6     0.08  -0.06  -0.00    -0.10   0.03   0.00    -0.18  -0.23  -0.02
     8   8     0.02  -0.02  -0.00    -0.03   0.02   0.00     0.02  -0.05  -0.00
     9   8    -0.02  -0.04  -0.00    -0.01  -0.00  -0.00    -0.09  -0.23  -0.02
    10   7    -0.04  -0.05  -0.00     0.00   0.04   0.00     0.08  -0.03  -0.00
    11   6    -0.12  -0.05  -0.00     0.13   0.02   0.00     0.13  -0.02   0.00
    12   1    -0.12  -0.20  -0.02     0.04   0.13   0.01     0.35   0.07   0.01
    13   1    -0.21   0.20   0.01     0.08  -0.07  -0.00     0.28  -0.31  -0.02
    14   1     0.17  -0.02   0.00    -0.15   0.02  -0.00     0.39   0.01   0.01
    15   1     0.18  -0.31  -0.02    -0.09   0.23   0.02    -0.00   0.09   0.01
                     31                     32                     33
                      A                      A                      A
 Frequencies --   1584.1939              1650.4001              1693.9889
 Red. masses --      7.9995                 2.4799                 1.8863
 Frc consts  --     11.8285                 3.9799                 3.1892
 IR Inten    --    161.4898               132.6544               474.8630
  Atom  AN      X      Y      Z        X      Y      Z        X      Y      Z
     1   6     0.07  -0.23  -0.02    -0.09  -0.18  -0.01     0.05   0.06   0.00
     2   6    -0.05   0.06   0.00     0.02   0.00   0.00    -0.02   0.01   0.00
     3   7    -0.25   0.47   0.03     0.01   0.06   0.00    -0.03  -0.01  -0.00
     4   6     0.19  -0.19  -0.01    -0.06   0.16   0.01     0.13  -0.11  -0.01
     5   1     0.04   0.11   0.05    -0.12   0.02   0.01     0.05   0.01   0.00
     6   1     0.04   0.12  -0.03    -0.12   0.02  -0.01     0.05   0.01  -0.00
     7   6     0.02   0.13   0.01     0.10   0.16   0.01    -0.05  -0.05  -0.00
     8   8     0.18  -0.21  -0.01     0.01  -0.02  -0.00     0.01  -0.00  -0.00
     9   8    -0.02  -0.16  -0.01     0.00  -0.01  -0.00     0.00   0.01   0.00
    10   7    -0.04   0.04   0.00    -0.03  -0.01  -0.00    -0.15   0.07   0.00
    11   6    -0.05   0.07   0.00     0.03  -0.14  -0.01    -0.02   0.06   0.00
    12   1    -0.07   0.11   0.01    -0.27  -0.03  -0.01     0.09   0.02   0.00
    13   1    -0.21   0.28   0.02     0.26  -0.42  -0.03     0.33  -0.60  -0.04
    14   1    -0.53  -0.02  -0.01     0.67   0.08   0.01     0.63   0.17   0.02
    15   1     0.05   0.02   0.00    -0.24   0.05   0.00     0.10  -0.02  -0.00
                     34                     35                     36
                      A                      A                      A
 Frequencies --   3101.6624              3141.9420              3273.6865
 Red. masses --      1.0618                 1.1027                 1.0925
 Frc consts  --      6.0186                 6.4139                 6.8982
 IR Inten    --      3.0120                 1.2718                 6.7130
  Atom  AN      X      Y      Z        X      Y      Z        X      Y      Z
     1   6    -0.00   0.00   0.00     0.00   0.00  -0.00    -0.00  -0.00  -0.00
     2   6    -0.00  -0.07  -0.01     0.00   0.01  -0.09     0.00  -0.00  -0.00
     3   7    -0.00  -0.00  -0.00    -0.00  -0.00   0.00    -0.00   0.00   0.00
     4   6     0.00   0.00   0.00     0.00   0.00  -0.00    -0.00   0.00   0.00
     5   1     0.03   0.45  -0.54    -0.03  -0.47   0.53     0.00  -0.00   0.00
     6   1     0.02   0.37   0.61     0.02   0.38   0.59     0.00  -0.00  -0.00
     7   6     0.00   0.00   0.00    -0.00   0.00  -0.00    -0.02   0.04   0.00
     8   8     0.00   0.00   0.00     0.00   0.00  -0.00    -0.00  -0.00  -0.00
     9   8     0.00   0.00   0.00    -0.00  -0.00   0.00     0.00   0.00   0.00
    10   7    -0.00  -0.00  -0.00    -0.00  -0.00   0.00    -0.00  -0.00  -0.00
    11   6    -0.00   0.00   0.00     0.00   0.00  -0.00    -0.04  -0.06  -0.00
    12   1    -0.00   0.00   0.00     0.00   0.00  -0.00     0.29  -0.49  -0.03
    13   1     0.00   0.00   0.00    -0.00  -0.00   0.00    -0.00  -0.00  -0.00
    14   1    -0.00  -0.00  -0.00     0.00   0.00  -0.00     0.00   0.00   0.00
    15   1     0.00   0.00   0.00    -0.00   0.00  -0.00     0.52   0.63   0.05
                     37                     38                     39
                      A                      A                      A
 Frequencies --   3286.4899              3621.0351              3732.7724
 Red. masses --      1.0999                 1.0461                 1.1058
 Frc consts  --      6.9992                 8.0813                 9.0780
 IR Inten    --      2.5096               324.2191                94.5223
  Atom  AN      X      Y      Z        X      Y      Z        X      Y      Z
     1   6     0.00   0.00   0.00    -0.00  -0.00  -0.00    -0.00  -0.00  -0.00
     2   6     0.00   0.00   0.00    -0.00  -0.00  -0.00     0.00   0.00   0.00
     3   7     0.00  -0.00  -0.00     0.00   0.00   0.00     0.00   0.00   0.00
     4   6    -0.00   0.00   0.00    -0.00  -0.00  -0.00    -0.00  -0.00  -0.00
     5   1    -0.00  -0.00   0.00     0.00   0.00  -0.00     0.00  -0.00   0.00
     6   1    -0.00  -0.00  -0.00     0.00   0.00   0.00     0.00  -0.00  -0.00
     7   6     0.04  -0.06  -0.00     0.00   0.00   0.00     0.00   0.00   0.00
     8   8    -0.00   0.00   0.00    -0.00   0.00   0.00    -0.00   0.00   0.00
     9   8    -0.00  -0.00  -0.00    -0.00  -0.00  -0.00    -0.00  -0.00  -0.00
    10   7     0.00  -0.00  -0.00     0.05  -0.02  -0.00    -0.03  -0.08  -0.01
    11   6    -0.04  -0.04  -0.00    -0.00   0.00   0.00    -0.00   0.00   0.00
    12   1    -0.42   0.69   0.05    -0.00   0.00   0.00    -0.00   0.00   0.00
    13   1     0.00  -0.00  -0.00    -0.60  -0.43  -0.04     0.55   0.38   0.04
    14   1     0.00   0.00   0.00    -0.08   0.67   0.05    -0.10   0.73   0.05
    15   1     0.37   0.44   0.04    -0.00  -0.00  -0.00    -0.00   0.00  -0.00

 -------------------
 - Thermochemistry -
 -------------------
 Temperature   298.150 Kelvin.  Pressure   1.00000 Atm.
 Atom     1 has atomic number  6 and mass  12.00000
 Atom     2 has atomic number  6 and mass  12.00000
 Atom     3 has atomic number  7 and mass  14.00307
 Atom     4 has atomic number  6 and mass  12.00000
 Atom     5 has atomic number  1 and mass   1.00783
 Atom     6 has atomic number  1 and mass   1.00783
 Atom     7 has atomic number  6 and mass  12.00000
 Atom     8 has atomic number  8 and mass  15.99491
 Atom     9 has atomic number  8 and mass  15.99491
 Atom    10 has atomic number  7 and mass  14.00307
 Atom    11 has atomic number  6 and mass  12.00000
 Atom    12 has atomic number  1 and mass   1.00783
 Atom    13 has atomic number  1 and mass   1.00783
 Atom    14 has atomic number  1 and mass   1.00783
 Atom    15 has atomic number  1 and mass   1.00783
 Molecular mass:   126.04293 amu.
 Principal axes and moments of inertia in atomic units:
                           1         2         3
     Eigenvalues --   413.022451692.415712094.26174
           X            0.99984  -0.01308  -0.01214
           Y            0.01216   0.99727  -0.07287
           Z            0.01306   0.07271   0.99727
 This molecule is an asymmetric top.
 Rotational symmetry number  1.
 Rotational temperatures (Kelvin)      0.20971     0.05118     0.04136
 Rotational constants (GHZ):           4.36960     1.06637     0.86176
 Zero-point vibrational energy     299886.6 (Joules/Mol)
                                   71.67461 (Kcal/Mol)
 Warning -- explicit consideration of  11 degrees of freedom as
           vibrations may cause significant error
 Vibrational temperatures:    150.52   195.67   280.37   314.44   360.96
          (Kelvin)            550.34   575.94   613.71   705.77   830.10
                              871.55   976.64  1091.04  1161.00  1166.73
                             1289.34  1360.85  1364.73  1448.14  1502.96
                             1544.91  1688.87  1731.92  1839.75  1889.55
                             2008.69  2093.42  2099.46  2108.71  2226.63
                             2279.30  2374.56  2437.27  4462.60  4520.55
                             4710.10  4728.53  5209.86  5370.63
 
 Zero-point correction=                           0.114221 (Hartree/Particle)
 Thermal correction to Energy=                    0.122214
 Thermal correction to Enthalpy=                  0.123158
 Thermal correction to Gibbs Free Energy=         0.081548
 Sum of electronic and zero-point Energies=           -453.661146
 Sum of electronic and thermal Energies=              -453.653152
 Sum of electronic and thermal Enthalpies=            -453.652208
 Sum of electronic and thermal Free Energies=         -453.693819
 
                     E (Thermal)             CV                S
                      KCal/Mol        Cal/Mol-Kelvin    Cal/Mol-Kelvin
 Total                   76.691             29.550             87.576
 Electronic               0.000              0.000              0.000
 Translational            0.889              2.981             40.408
 Rotational               0.889              2.981             28.772
 Vibrational             74.913             23.589             18.396
 Vibration     1          0.605              1.946              3.366
 Vibration     2          0.614              1.917              2.859
 Vibration     3          0.636              1.847              2.181
 Vibration     4          0.646              1.813              1.971
 Vibration     5          0.663              1.761              1.724
 Vibration     6          0.752              1.507              1.029
 Vibration     7          0.766              1.469              0.962
 Vibration     8          0.788              1.412              0.870
 Vibration     9          0.846              1.271              0.682
 Vibration    10          0.933              1.081              0.491
 Vibration    11          0.964              1.020              0.440
                       Q            Log10(Q)             Ln(Q)
 Total Bot       0.309469D-37        -37.509382        -86.368544
 Total V=0       0.106776D+16         15.028473         34.604339
 Vib (Bot)       0.128465D-50        -50.891215       -117.181354
 Vib (Bot)    1  0.195995D+01          0.292245          0.672919
 Vib (Bot)    2  0.149670D+01          0.175134          0.403262
 Vib (Bot)    3  0.102521D+01          0.010815          0.024902
 Vib (Bot)    4  0.905627D+00         -0.043050         -0.099127
 Vib (Bot)    5  0.777633D+00         -0.109225         -0.251500
 Vib (Bot)    6  0.471854D+00         -0.326192         -0.751085
 Vib (Bot)    7  0.445158D+00         -0.351486         -0.809326
 Vib (Bot)    8  0.409584D+00         -0.387656         -0.892612
 Vib (Bot)    9  0.337853D+00         -0.471273         -1.085145
 Vib (Bot)   10  0.264926D+00         -0.576875         -1.328304
 Vib (Bot)   11  0.245038D+00         -0.610767         -1.406343
 Vib (V=0)       0.443241D+02          1.646640          3.791529
 Vib (V=0)    1  0.252272D+01          0.401869          0.925339
 Vib (V=0)    2  0.207801D+01          0.317647          0.731409
 Vib (V=0)    3  0.164064D+01          0.215014          0.495088
 Vib (V=0)    4  0.153449D+01          0.185963          0.428195
 Vib (V=0)    5  0.142451D+01          0.153665          0.353826
 Vib (V=0)    6  0.118749D+01          0.074631          0.171844
 Vib (V=0)    7  0.116945D+01          0.067982          0.156535
 Vib (V=0)    8  0.114634D+01          0.059315          0.136577
 Vib (V=0)    9  0.110344D+01          0.042750          0.098436
 Vib (V=0)   10  0.106585D+01          0.027696          0.063772
 Vib (V=0)   11  0.105682D+01          0.023999          0.055260
 Electronic      0.100000D+01          0.000000          0.000000
 Translational   0.556201D+08          7.745232         17.834055
 Rotational      0.433113D+06          5.636601         12.978754
 -------------------------------------------------------------------
 Center     Atomic                   Forces (Hartrees/Bohr)
 Number     Number              X              Y              Z
 -------------------------------------------------------------------
      1        6          -0.000021853   -0.000002708   -0.000045645
      2        6           0.000001654   -0.000021022    0.000039239
      3        7           0.000025973   -0.000008767    0.000054994
      4        6          -0.000067717    0.000026998    0.000002684
      5        1          -0.000007192    0.000009716   -0.000021486
      6        1           0.000021606    0.000009893    0.000001358
      7        6          -0.000008463    0.000001683    0.000035661
      8        8          -0.000014890    0.000019166   -0.000017477
      9        8           0.000001868   -0.000034965   -0.000013181
     10        7           0.000071612   -0.000012157   -0.000017859
     11        6           0.000001560    0.000010637   -0.000008883
     12        1          -0.000005471   -0.000003801   -0.000015215
     13        1           0.000001932    0.000012998    0.000011318
     14        1           0.000005480   -0.000004259   -0.000003890
     15        1          -0.000006097   -0.000003414   -0.000001618
 -------------------------------------------------------------------
 Cartesian Forces:  Max     0.000071612 RMS     0.000023545
 FormGI is forming the generalized inverse of G from B-inverse, IUseBI=4.

 **********************************************************************

             Generation of the Franck-Condon spectrum

 **********************************************************************


     ==================================================
            Parameters for vibronic calculations
     ==================================================


 Using the following non-standard input for vibronic spectroscopy:
 TimeDependent
 Temperature=Value=300
 Transition=Emission
 TD=GauHWHM=135.0
 Print=(Spectra=All,Matrix=JK)
 --- end of non-standard input.

     ==================================================
               Information on the Simulation
     ==================================================

 General framework: TIME-DEPENDENT
 Spectroscopy: ONE-PHOTON EMISSION
 Model for to the transition: ADIABATIC HESSIAN
 Approx. of the electronic transition moment(s): FC
 Temperature of simulation: 300.00K

     ==================================================
                  Treatment of Input Data
     ==================================================

 Initial State
 -------------
 Data taken from checkpoint file "nh2_5mem_no2_ex.chk"
 Normal modes recovered from file.

 Final State
 -----------
 Data taken from current calculation.
 Normal modes recovered from file.

 NOTE: Using excited electronic state number  1.

     ==================================================
                  Superposition Procedure
     ==================================================

 Initial state structure is set in Eckart orientation.
 Final state structure is superposed to it.

              New orientation in initial state              
 ---------------------------------------------------------------------
 Center     Atomic                     Coordinates (Angstroms)
 Number     Number                        X           Y           Z
 ---------------------------------------------------------------------
      1          6                    0.404508   -0.133932   -0.000260
      2          6                   -0.624791    0.952894   -0.000052
      3          7                    1.758513    0.152368   -0.000042
      4          6                   -1.877500    0.121780    0.000088
      5          1                   -0.557399    1.614473   -0.878611
      6          1                   -0.557075    1.614374    0.878557
      7          6                   -0.167121   -1.424723   -0.000239
      8          8                    2.576167   -0.803942    0.000304
      9          8                    2.107107    1.361460   -0.000056
     10          7                   -3.094913    0.661912    0.000102
     11          6                   -1.562544   -1.257907    0.000026
     12          1                    0.382496   -2.352547   -0.000281
     13          1                   -3.928889    0.088463    0.000329
     14          1                   -3.225755    1.665008    0.000265
     15          1                   -2.299160   -2.051497    0.000159
 ---------------------------------------------------------------------
               New orientation in final state               
 ---------------------------------------------------------------------
 Center     Atomic                     Coordinates (Angstroms)
 Number     Number                        X           Y           Z
 ---------------------------------------------------------------------
      1          6                    0.415065   -0.124332    0.000433
      2          6                   -0.642015    0.933416    0.000229
      3          7                    1.774448    0.144748   -0.000054
      4          6                   -1.899517    0.099809   -0.000155
      5          1                   -0.597210    1.582737   -0.880659
      6          1                   -0.598090    1.582270    0.881553
      7          6                   -0.163822   -1.364181   -0.000086
      8          8                    2.586409   -0.794939    0.000228
      9          8                    2.132994    1.335082   -0.000425
     10          7                   -3.113378    0.656244    0.000299
     11          6                   -1.575220   -1.245364   -0.000314
     12          1                    0.385690   -2.297041   -0.000034
     13          1                   -3.948281    0.088720   -0.001288
     14          1                   -3.234287    1.657781   -0.000670
     15          1                   -2.278668   -2.066824   -0.000455
 ---------------------------------------------------------------------

     ==================================================
                 Duschinsky Transformation
     ==================================================

 Duschinsky matrix
 -----------------
 Note: The normal coordinates of the final state (columns) are expressed
       in the basis set of the normal coordinates of the initial state (rows)
                 1             2             3             4             5 
      1  -0.907421D+00 -0.199599D+00  0.820037D-04 -0.105788D+00  0.330625D+00
      2   0.298084D+00 -0.910912D+00  0.395736D-03 -0.398201D-01  0.238320D+00
      3   0.494244D-03  0.947725D-03  0.998872D+00 -0.805610D-03  0.122491D-02
      4  -0.289713D+00 -0.329491D+00  0.176908D-02  0.221370D+00 -0.831509D+00
      5  -0.234686D-01  0.220547D-01  0.450438D-03  0.963671D+00  0.262524D+00
      6  -0.147315D-03  0.564647D-04  0.335636D-01  0.868893D-04 -0.115616D-04
      7   0.447458D-01 -0.775697D-01 -0.546381D-04  0.855604D-01 -0.198314D+00
      8  -0.148211D-04 -0.452488D-03 -0.863093D-02 -0.535249D-03 -0.115358D-02
      9  -0.196634D-01  0.110705D+00 -0.113777D-04  0.167020D-01 -0.108794D+00
     10  -0.223236D-01 -0.366191D-01 -0.455654D-05  0.318281D-02  0.612922D-01
     11   0.200244D-03  0.178599D-03 -0.262078D-01 -0.266778D-03  0.146703D-04
     12  -0.866896D-02 -0.318701D-01  0.188017D-04  0.191999D-01 -0.591887D-01
     13  -0.532046D-04  0.582468D-04  0.142589D-01 -0.538360D-03 -0.122177D-03
     14   0.143685D-01  0.140983D-01 -0.822991D-04 -0.360861D-01  0.103527D+00
     15   0.845457D-04  0.884892D-04  0.649776D-02 -0.156269D-03 -0.172838D-04
     16   0.149866D-02 -0.108834D-01 -0.212916D-04 -0.540355D-02  0.405751D-01
     17  -0.240964D-04 -0.110380D-03 -0.358018D-02  0.120278D-03  0.956151D-04
     18   0.674391D-04  0.110023D-03 -0.621683D-02 -0.252700D-03  0.299465D-04
     19   0.640681D-02 -0.148261D-01  0.119938D-04 -0.149589D-01  0.516614D-01
     20  -0.325411D-04 -0.751441D-04  0.474426D-02 -0.436094D-04 -0.181339D-03
     21   0.703843D-04 -0.531479D-04  0.237527D-02 -0.326788D-03 -0.112767D-03
     22   0.534135D-02 -0.126869D-01  0.224895D-04 -0.367629D-02 -0.605685D-02
     23   0.109470D-04 -0.520698D-04 -0.403459D-03  0.768782D-04  0.103462D-03
     24   0.168039D-04  0.172172D-04  0.414415D-02 -0.108698D-03 -0.532106D-04
     25   0.179705D-05  0.677021D-04 -0.152428D-02  0.150291D-03  0.939476D-04
     26   0.322699D-04  0.886428D-04 -0.136491D-02  0.351763D-04  0.459009D-04
     27  -0.658061D-05 -0.131415D-04  0.181398D-02  0.393388D-04 -0.194336D-04
     28   0.855020D-04  0.541867D-05 -0.169485D-02 -0.336620D-03 -0.110717D-03
     29  -0.201393D-04 -0.767569D-05 -0.679115D-04 -0.151853D-04  0.357944D-04
     30  -0.329618D-04  0.305306D-05 -0.329848D-06 -0.970048D-05  0.145666D-04
     31   0.566423D-04  0.564895D-04  0.103881D-02  0.300636D-04  0.496248D-04
     32  -0.205659D-04  0.243775D-04  0.246313D-02 -0.109929D-03 -0.939794D-04
     33  -0.851162D-04  0.879310D-04 -0.738613D-03 -0.112414D-02 -0.513367D-03
     34   0.650414D-05 -0.876148D-04  0.190582D-03 -0.862413D-05  0.107390D-04
     35   0.741529D-03 -0.283005D-02  0.261516D-04 -0.399420D-03  0.232376D-02
     36   0.884501D-05  0.221151D-04 -0.135010D-02  0.701592D-05  0.554623D-05
     37  -0.155784D-05 -0.459535D-05  0.102460D-03 -0.131952D-05 -0.616773D-05
     38   0.150816D-04 -0.885229D-04 -0.837557D-03  0.131747D-02  0.514982D-03
     39   0.509357D-04  0.112972D-03 -0.359447D-03 -0.140702D-03 -0.615378D-04
                 6             7             8             9            10 
      1  -0.484538D-03  0.114016D+00  0.257708D-03  0.191561D-01  0.207893D-03
      2   0.111133D-03  0.177630D-01 -0.226515D-03  0.139960D+00  0.127280D-03
      3  -0.319847D-01  0.322994D-03  0.114757D-01 -0.767527D-04  0.286385D-01
      4   0.585194D-03 -0.225125D+00 -0.105092D-02  0.186195D-01  0.182140D-03
      5   0.706798D-04 -0.232340D-01  0.806025D-03  0.235890D-01  0.169303D-03
      6   0.995351D+00  0.349534D-02 -0.820227D-01 -0.551957D-03 -0.158817D-01
      7  -0.342296D-02  0.892083D+00  0.162112D-03 -0.275106D+00  0.180443D-03
      8   0.837412D-01  0.195138D-04  0.994143D+00  0.526929D-03 -0.549752D-02
      9  -0.558579D-03  0.321679D+00 -0.441583D-03  0.846666D+00  0.443366D-03
     10   0.496007D-04 -0.206067D-01  0.213610D-03 -0.293643D+00  0.510272D-03
     11   0.171444D-01 -0.227208D-03 -0.206742D-02 -0.223795D-03  0.986729D+00
     12  -0.127932D-03  0.122980D+00  0.181783D-03 -0.294731D+00 -0.376422D-04
     13  -0.440641D-02  0.643232D-04 -0.351128D-01 -0.132649D-03 -0.151627D+00
     14  -0.499277D-04  0.213974D-01 -0.363368D-04  0.102280D+00 -0.591920D-04
     15  -0.157447D-01 -0.339801D-04  0.414246D-01  0.801901D-04 -0.920529D-02
     16  -0.139345D-03  0.467153D-01  0.201810D-04 -0.330235D-01 -0.756691D-04
     17  -0.121669D-03 -0.246103D-03  0.564750D-02 -0.782667D-04  0.310222D-02
     18   0.208318D-01 -0.936700D-05 -0.315271D-01  0.159286D-03 -0.202645D-01
     19   0.160362D-03 -0.132102D+00 -0.122710D-04 -0.247275D-01 -0.117838D-03
     20  -0.381848D-02 -0.289576D-04 -0.165937D-02  0.539054D-03 -0.210332D-01
     21   0.309389D-02 -0.222167D-03 -0.414551D-02 -0.530752D-03  0.756187D-02
     22   0.222423D-05 -0.169832D-01 -0.898837D-04  0.361514D-01 -0.487966D-04
     23   0.101671D-01  0.326577D-04 -0.222762D-02 -0.153042D-04 -0.963961D-02
     24   0.478771D-02 -0.727196D-04 -0.722704D-02  0.162851D-04 -0.108337D-01
     25  -0.546437D-02  0.350196D-04 -0.419719D-03 -0.303003D-03  0.579357D-02
     26   0.373043D-02 -0.554699D-04  0.148544D-01 -0.934936D-04 -0.390038D-02
     27  -0.168757D-02 -0.182364D-04 -0.311113D-02  0.514771D-04  0.190267D-01
     28  -0.247612D-02  0.256578D-04  0.217776D-01 -0.342328D-04  0.991057D-02
     29   0.337875D-03  0.282388D-04 -0.118873D-02  0.236982D-03  0.135702D-01
     30  -0.253029D-02  0.301187D-04 -0.428956D-03  0.907144D-04 -0.167261D-02
     31  -0.258311D-02 -0.646995D-05 -0.119921D-02  0.702436D-04 -0.542694D-02
     32   0.527474D-03 -0.675462D-04 -0.487177D-02 -0.185637D-04 -0.145641D-01
     33  -0.287355D-03 -0.140835D-03  0.383938D-02  0.104324D-04  0.487432D-02
     34  -0.258879D-02 -0.183851D-03  0.217183D-02 -0.117296D-03 -0.825869D-03
     35  -0.159674D-04 -0.122977D-01 -0.252545D-04 -0.558200D-02 -0.380430D-04
     36   0.247848D-02 -0.233769D-04  0.224367D-02  0.380715D-06  0.315583D-02
     37  -0.225616D-03  0.121537D-04  0.537739D-03 -0.116976D-04  0.618006D-03
     38  -0.188720D-02  0.190629D-03 -0.200599D-02  0.422583D-03 -0.116760D-02
     39  -0.572474D-03 -0.339919D-03 -0.441523D-03 -0.111828D-02 -0.223965D-03
                11            12            13            14            15 
      1  -0.412859D-01  0.572592D-04  0.277905D-02 -0.306373D-01  0.108021D-03
      2  -0.389888D-02  0.138720D-03  0.445234D-01 -0.199453D-01  0.696044D-04
      3  -0.637281D-04 -0.115375D-01  0.691184D-04 -0.862294D-04 -0.413186D-02
      4   0.417674D-01 -0.120862D-03 -0.756538D-01  0.748292D-01  0.265487D-04
      5  -0.135176D-01  0.611210D-03  0.164623D-02  0.949788D-03  0.679581D-04
      6  -0.644363D-04  0.573412D-02 -0.511005D-03 -0.142409D-03  0.141422D-01
      7  -0.276961D-01  0.118196D-03 -0.233551D+00 -0.843260D-01 -0.648552D-04
      8   0.137157D-04  0.196925D-01 -0.110961D-03  0.619248D-04 -0.414472D-01
      9   0.233061D+00 -0.573063D-04  0.289584D+00  0.556790D-01  0.415266D-04
     10   0.941210D+00 -0.329288D-03  0.130494D+00  0.220121D-01  0.904306D-04
     11  -0.544883D-03  0.145142D+00 -0.123103D-03  0.233513D-03 -0.245552D-01
     12  -0.217130D+00 -0.866389D-03  0.812428D+00  0.258037D+00  0.557824D-03
     13   0.318696D-03  0.949140D+00  0.338764D-03  0.903550D-03 -0.241352D+00
     14   0.591268D-01 -0.151035D-02 -0.402518D+00  0.427376D+00 -0.214391D-03
     15   0.844903D-04  0.258683D+00 -0.602399D-03  0.833993D-03  0.947087D+00
     16  -0.957857D-02 -0.219436D-03 -0.795140D-01  0.855669D+00 -0.856888D-03
     17   0.927800D-04  0.370434D-02 -0.976353D-05 -0.697683D-03 -0.114013D+00
     18   0.774563D-04 -0.743889D-01 -0.498109D-04  0.186488D-03  0.139600D+00
     19  -0.676246D-01  0.333365D-04 -0.915768D-01  0.200896D-01 -0.969907D-05
     20  -0.158228D-03 -0.104906D-01  0.680556D-04  0.204898D-03  0.396753D-01
     21   0.502071D-03 -0.179614D-02 -0.182328D-05 -0.533222D-04  0.654068D-01
     22   0.680572D-02 -0.117584D-04 -0.840068D-02 -0.226853D-01  0.645821D-04
     23  -0.554063D-04 -0.155264D-01 -0.141429D-03 -0.496715D-04  0.352012D-01
     24   0.459846D-04 -0.278024D-01  0.798991D-04 -0.136414D-03  0.176183D-01
     25   0.135922D-03  0.171402D-01 -0.169619D-03 -0.147173D-03 -0.341562D-01
     26   0.148678D-03  0.140965D-01  0.308001D-04 -0.517540D-04 -0.129711D-01
     27  -0.168602D-03  0.118652D-01 -0.475151D-04 -0.626083D-04 -0.565197D-03
     28   0.958179D-04  0.414801D-01  0.300049D-03  0.349377D-05  0.145343D-01
     29  -0.359667D-03  0.618671D-02  0.229197D-04  0.161909D-03  0.117907D-01
     30   0.690411D-04 -0.390869D-02 -0.789918D-04 -0.274476D-04 -0.108837D-01
     31   0.805902D-05 -0.112548D-01  0.106950D-03  0.406488D-04  0.355722D-02
     32  -0.977752D-04 -0.323683D-01  0.389199D-04  0.107782D-03 -0.202542D-01
     33  -0.143450D-03  0.165646D-01  0.825822D-05  0.105886D-03  0.905925D-02
     34  -0.161431D-03  0.539641D-02 -0.227876D-05  0.536433D-04 -0.327288D-02
     35  -0.597135D-02  0.675655D-04  0.153496D-02  0.412813D-02  0.269069D-04
     36  -0.897588D-04  0.132727D-02  0.595013D-05 -0.236067D-03 -0.264406D-02
     37  -0.158093D-04  0.189155D-02  0.970794D-05 -0.174411D-04 -0.450320D-03
     38  -0.206927D-03 -0.179715D-02  0.964427D-05  0.187640D-04 -0.750756D-03
     39   0.677566D-03  0.408274D-04 -0.448878D-04 -0.166652D-03  0.785071D-04
                16            17            18            19            20 
      1  -0.255485D-04 -0.371518D-04  0.185310D-03 -0.130586D-01  0.252183D-05
      2  -0.948886D-04 -0.298587D-03 -0.184076D-01 -0.101556D-01 -0.851400D-04
      3   0.289935D-02 -0.865446D-02  0.962905D-04 -0.522949D-04 -0.311145D-02
      4   0.496386D-06 -0.120592D-03 -0.697151D-03  0.532028D-01 -0.141219D-03
      5  -0.783695D-04 -0.202209D-03 -0.291707D-02  0.779115D-02  0.171315D-03
      6   0.111645D-02  0.219122D-01 -0.236878D-04 -0.735637D-04  0.190628D-02
      7   0.130321D-03  0.122842D-02  0.105087D+00 -0.803961D-02  0.118209D-03
      8  -0.838431D-02 -0.313384D-01  0.447295D-03  0.687945D-04  0.469453D-02
      9   0.193404D-03  0.159469D-02  0.110497D+00  0.206683D-01 -0.478616D-03
     10  -0.173176D-03  0.696230D-03  0.591847D-01  0.288303D-01  0.256100D-03
     11  -0.731817D-02 -0.284516D-01  0.366948D-03  0.209489D-03  0.203001D-01
     12   0.212418D-03  0.277625D-03  0.153724D-01  0.342654D+00  0.323527D-03
     13  -0.253463D-01 -0.834851D-01  0.857637D-03  0.139668D-02  0.172788D-01
     14   0.194484D-03 -0.184675D-02 -0.166512D+00  0.773464D+00  0.838892D-03
     15   0.971588D-01  0.860953D-01 -0.120617D-02  0.459870D-05 -0.463342D-01
     16   0.591894D-03  0.786633D-03  0.591802D-01 -0.502791D+00 -0.690577D-03
     17   0.985526D+00 -0.483028D-02  0.254567D-03  0.197819D-03  0.254011D-01
     18   0.408917D-01 -0.940755D+00  0.122340D-01 -0.112780D-03  0.847432D-01
     19  -0.266205D-03  0.124439D-01  0.967036D+00  0.158621D+00 -0.331914D-03
     20  -0.303523D-01  0.871889D-01 -0.622550D-03 -0.103244D-02  0.979654D+00
     21   0.103336D+00  0.250828D+00 -0.291303D-02 -0.605323D-03  0.587937D-01
     22   0.172330D-03  0.119099D-02  0.781423D-01 -0.432886D-01 -0.290882D-05
     23  -0.159098D-01  0.291676D-01 -0.274024D-03  0.485331D-04 -0.107060D+00
     24   0.392378D-01  0.105636D+00 -0.127385D-02 -0.203449D-04 -0.809488D-01
     25  -0.372207D-01 -0.103869D+00  0.121505D-02 -0.206938D-03 -0.787133D-03
     26  -0.232956D-01 -0.465679D-01  0.774311D-03 -0.180547D-03  0.144799D-01
     27   0.151250D-01 -0.256991D-01  0.275126D-03 -0.765828D-04  0.265581D-01
     28   0.168574D-02 -0.258187D-01  0.421235D-03 -0.894860D-04  0.567410D-01
     29   0.187220D-01  0.791273D-02 -0.120920D-03 -0.202456D-03  0.204512D-01
     30   0.872337D-02  0.211992D-01 -0.445764D-03 -0.136380D-04 -0.137690D-01
     31   0.812336D-02  0.245167D-01 -0.315257D-03 -0.134985D-04 -0.129586D-01
     32  -0.256345D-01 -0.101667D-01 -0.186883D-04  0.805316D-04 -0.496718D-01
     33   0.898325D-02  0.344448D-02 -0.144154D-03 -0.478033D-04  0.236781D-01
     34   0.577452D-02  0.166454D-02  0.128573D-03  0.428231D-04  0.839429D-03
     35   0.836326D-04 -0.123590D-05  0.114210D-02  0.816620D-04  0.405549D-05
     36   0.525859D-02 -0.385826D-02  0.286276D-04  0.586219D-04 -0.116768D-01
     37   0.320246D-03 -0.809359D-03  0.308735D-05  0.644773D-04 -0.140285D-02
     38  -0.116936D-02 -0.233826D-03  0.529365D-04  0.128559D-04  0.149969D-02
     39  -0.310102D-03 -0.179264D-03 -0.599644D-04 -0.417800D-04  0.586499D-03
                21            22            23            24            25 
      1   0.118562D-03  0.422511D-02 -0.421665D-04 -0.439255D-05  0.610298D-04
      2   0.584320D-04 -0.157089D-01 -0.291542D-04 -0.508809D-04  0.131246D-04
      3   0.354790D-03  0.638302D-05  0.125442D-02  0.149423D-02 -0.205651D-02
      4  -0.123834D-04 -0.825716D-02  0.612269D-04 -0.305553D-04  0.404306D-05
      5   0.436216D-03  0.501421D-02 -0.134949D-03  0.118149D-03  0.263971D-03
      6  -0.876196D-02  0.731057D-05 -0.102572D-01 -0.265500D-02 -0.959370D-02
      7   0.438891D-04  0.106576D-01 -0.562338D-04  0.113572D-03  0.147123D-03
      8   0.110612D-01  0.632227D-04  0.244739D-02 -0.806369D-02  0.210216D-03
      9   0.367285D-03 -0.301710D-01  0.140173D-03 -0.229240D-03 -0.120905D-03
     10  -0.668964D-03  0.208110D-02  0.600920D-04  0.156858D-03 -0.319133D-04
     11  -0.198042D-02  0.102820D-03  0.103440D-01 -0.238633D-02  0.953675D-02
     12   0.106031D-03  0.401415D-01  0.242587D-04 -0.227582D-03 -0.595467D-04
     13   0.326234D-01  0.178927D-03  0.183369D-01 -0.288162D-03  0.245070D-01
     14   0.486969D-03  0.499192D-01 -0.103028D-03 -0.188473D-03  0.233979D-03
     15  -0.870894D-01 -0.149356D-03 -0.301659D-01 -0.208518D-01 -0.428202D-01
     16  -0.265540D-03 -0.549671D-02  0.659108D-05 -0.240660D-04  0.719089D-05
     17  -0.920093D-01 -0.117064D-03  0.256009D-01 -0.110596D-01 -0.386823D-01
     18   0.205897D+00  0.163100D-03  0.144236D-01  0.174648D-01  0.930819D-01
     19  -0.186150D-03 -0.701923D-01  0.170768D-04 -0.659458D-04 -0.187261D-03
     20  -0.955842D-01  0.857285D-04  0.847361D-01 -0.540025D-01  0.313363D-01
     21   0.946555D+00 -0.167278D-03  0.309193D-01 -0.495569D-01  0.311184D-01
     22   0.105200D-03  0.994645D+00 -0.254862D-02 -0.476463D-03 -0.819438D-04
     23  -0.516680D-01  0.246216D-02  0.969701D+00 -0.675410D-01  0.753420D-01
     24  -0.112828D+00 -0.607617D-03 -0.159477D+00 -0.406252D+00  0.803519D+00
     25   0.484535D-01 -0.328537D-03  0.111230D-01 -0.872639D+00 -0.245104D+00
     26   0.115205D+00  0.453161D-03  0.955691D-01  0.215979D+00  0.414085D+00
     27  -0.232134D-01  0.263090D-03  0.107484D+00 -0.931329D-02  0.188306D+00
     28   0.514535D-01  0.355276D-04 -0.433188D-01  0.863502D-01  0.217994D+00
     29  -0.139078D-01  0.556654D-04 -0.120823D-02  0.529027D-01  0.899709D-01
     30  -0.872708D-02  0.407635D-03 -0.118257D-01 -0.319634D-02 -0.298764D-01
     31  -0.988256D-02  0.240693D-04 -0.267786D-01  0.590092D-02 -0.304530D-01
     32   0.135116D-01 -0.840003D-04 -0.576216D-02 -0.667420D-01 -0.879651D-01
     33   0.890735D-02  0.157200D-03 -0.744987D-02  0.294204D-01  0.334598D-01
     34   0.586631D-02 -0.436445D-03  0.924464D-02  0.125318D-01  0.689572D-02
     35   0.554049D-04 -0.149485D-01  0.330067D-03  0.323782D-03  0.811355D-04
     36  -0.159544D-01  0.195959D-04  0.628315D-02 -0.829854D-02  0.239772D-01
     37  -0.174877D-02  0.160723D-04  0.281202D-02  0.915404D-03  0.371226D-02
     38  -0.747802D-02 -0.340697D-04  0.121303D-02 -0.465408D-03 -0.343496D-02
     39  -0.141162D-02  0.605754D-04 -0.216686D-03 -0.177966D-03 -0.101564D-02
                26            27            28            29            30 
      1  -0.256913D-04 -0.407757D-04  0.444872D-04 -0.241221D-04  0.396703D-04
      2   0.688235D-04 -0.546510D-04  0.498582D-04 -0.912702D-05  0.181744D-04
      3  -0.353607D-03 -0.366834D-02  0.131780D-02  0.144217D-02 -0.798201D-03
      4   0.375102D-04 -0.990174D-04  0.275686D-04  0.990652D-04  0.630356D-04
      5  -0.385079D-03 -0.259849D-04  0.868331D-04  0.750251D-04 -0.408780D-04
      6   0.171339D-02 -0.209758D-02  0.599296D-02  0.314948D-02  0.784107D-02
      7  -0.264640D-04  0.487256D-04 -0.774330D-04  0.151287D-04  0.866406D-06
      8  -0.103270D-02  0.210560D-01 -0.159201D-01 -0.750801D-02 -0.157891D-01
      9   0.106071D-03 -0.696519D-04  0.829353D-04 -0.130852D-03  0.200261D-04
     10  -0.117954D-04  0.231831D-03 -0.352267D-03  0.852778D-04  0.109253D-03
     11   0.514548D-02  0.133382D-02 -0.582928D-02 -0.522000D-02 -0.196330D-01
     12   0.220275D-03  0.404028D-04  0.261046D-04 -0.151829D-05 -0.108166D-03
     13  -0.573011D-02  0.358518D-01 -0.330697D-01 -0.103989D-01 -0.351781D-01
     14  -0.163972D-04 -0.149632D-03  0.409934D-04  0.581894D-04  0.149978D-03
     15   0.496109D-01 -0.125464D-01  0.164641D-01 -0.636737D-02  0.255892D-01
     16  -0.407763D-04 -0.223069D-04  0.199679D-03 -0.120047D-03 -0.581734D-04
     17   0.285196D-01 -0.398972D-01  0.170816D-01 -0.687264D-02  0.250849D-01
     18  -0.566916D-01  0.733899D-01 -0.485375D-01  0.476961D-02 -0.981138D-01
     19   0.374957D-04  0.150008D-03  0.670496D-04  0.145637D-03  0.716117D-04
     20   0.197184D-01  0.172655D-01 -0.193131D-01 -0.991952D-02 -0.365724D-01
     21  -0.534477D-01  0.867174D-01 -0.459002D-01 -0.219895D-01 -0.578810D-01
     22  -0.101720D-03 -0.773722D-04 -0.230309D-03 -0.397517D-03  0.440113D-04
     23  -0.120944D+00 -0.188971D-01 -0.252033D-01  0.520240D-01 -0.766710D-01
     24  -0.117556D+00  0.104670D+00 -0.100926D+00 -0.427165D-01 -0.229813D+00
     25   0.163950D+00 -0.209041D+00  0.928509D-01  0.100380D+00  0.188159D+00
     26   0.692062D+00 -0.434425D+00  0.156655D+00  0.429637D-01  0.208444D+00
     27   0.102138D+00  0.636759D+00  0.165511D+00 -0.297403D+00  0.469057D+00
     28  -0.609387D+00 -0.259826D+00  0.384604D+00  0.308224D+00  0.458654D+00
     29   0.842597D-02  0.600273D-01 -0.757030D+00  0.516370D+00  0.209974D+00
     30   0.230862D+00  0.454037D+00  0.413928D+00  0.674663D+00 -0.280507D+00
     31   0.859739D-01  0.224945D-02  0.261212D-01  0.262993D+00  0.315476D+00
     32   0.963918D-01  0.225848D+00 -0.160835D+00 -0.872870D-01  0.433262D+00
     33  -0.630697D-01 -0.754198D-01  0.506871D-01  0.207550D-01 -0.667583D-01
     34   0.176627D-02  0.605272D-02 -0.149721D-01 -0.947819D-02 -0.626840D-02
     35   0.246764D-03 -0.204176D-04  0.167351D-03  0.144632D-03 -0.376577D-04
     36  -0.765416D-02  0.899364D-02  0.987726D-02 -0.909038D-02 -0.196757D-02
     37  -0.418374D-02 -0.340921D-03  0.153097D-02  0.759666D-04 -0.435282D-02
     38   0.551132D-02  0.239581D-02 -0.315592D-02 -0.375822D-03  0.312111D-02
     39   0.179445D-03 -0.953424D-03 -0.188163D-03  0.336144D-03 -0.970985D-03
                31            32            33            34            35 
      1  -0.408488D-04  0.471509D-04 -0.224304D-04  0.704828D-05  0.757836D-03
      2   0.903758D-05  0.869693D-04  0.169599D-03 -0.763360D-04 -0.259104D-02
      3   0.703581D-03 -0.170421D-02  0.940711D-03 -0.195474D-03 -0.223770D-04
      4  -0.494276D-04 -0.123921D-03 -0.173182D-03 -0.591731D-04 -0.144734D-02
      5   0.639868D-04  0.501790D-03  0.106271D-02  0.216325D-05 -0.309463D-03
      6   0.131127D-02 -0.455561D-02  0.217837D-02  0.311895D-02  0.429475D-04
      7  -0.342111D-04  0.161340D-03  0.100776D-03  0.147504D-03  0.102721D-01
      8  -0.951085D-02  0.727653D-02 -0.439322D-02 -0.265751D-02  0.487187D-04
      9   0.792265D-04 -0.381576D-04  0.589578D-04  0.216250D-03  0.940569D-02
     10   0.373108D-04 -0.165716D-04  0.236447D-03  0.112651D-03  0.317178D-02
     11  -0.721441D-02  0.354178D-01 -0.184166D-01 -0.250023D-03  0.227794D-04
     12   0.301068D-04 -0.142227D-03  0.142975D-04 -0.689004D-04 -0.313064D-02
     13  -0.211419D-01  0.408869D-01 -0.240296D-01 -0.724980D-02 -0.308292D-04
     14   0.472561D-05 -0.160592D-03  0.287806D-04  0.244035D-04  0.682708D-03
     15   0.228035D-01  0.567225D-02 -0.885824D-02  0.276500D-02 -0.524122D-04
     16  -0.535080D-05 -0.412893D-04 -0.686099D-04 -0.497243D-04 -0.331558D-02
     17   0.240652D-01  0.125972D-01 -0.963649D-02 -0.464938D-02 -0.657359D-04
     18  -0.549469D-01  0.574614D-01 -0.238570D-01 -0.179379D-02 -0.149799D-04
     19   0.708203D-04  0.271232D-04  0.129351D-03 -0.236056D-03 -0.444899D-02
     20  -0.704605D-02  0.709366D-01 -0.409591D-01 -0.900205D-03  0.523875D-06
     21  -0.355922D-01  0.112840D-01 -0.136578D-01 -0.812810D-02 -0.150042D-05
     22  -0.106765D-04 -0.409633D-04 -0.145441D-03  0.513685D-03  0.148945D-01
     23  -0.301762D-01  0.804298D-01 -0.275640D-01 -0.795855D-02 -0.199729D-03
     24  -0.776055D-01  0.170646D+00 -0.727392D-01 -0.215341D-02  0.181481D-03
     25   0.640024D-01 -0.162178D+00  0.828628D-01  0.167548D-01  0.142178D-03
     26   0.130939D+00 -0.350489D-01  0.694214D-02 -0.817406D-03 -0.334192D-03
     27  -0.391947D-01 -0.399086D+00  0.192924D+00 -0.536119D-02 -0.318060D-04
     28   0.190572D+00 -0.521708D-01 -0.518956D-01  0.126961D-01 -0.346755D-04
     29   0.125534D+00 -0.264630D+00  0.119689D+00 -0.691424D-02  0.468076D-04
     30   0.164017D+00  0.766651D-01 -0.226736D-01  0.937012D-02 -0.241295D-03
     31  -0.870326D+00  0.243644D+00 -0.597585D-01  0.236782D-04 -0.443169D-04
     32   0.357136D+00  0.745700D+00 -0.131604D+00  0.453841D-02  0.102146D-03
     33  -0.145597D-01  0.267710D+00  0.952747D+00 -0.513855D-03 -0.339209D-04
     34  -0.680106D-02 -0.294087D-02  0.164038D-02  0.999553D+00 -0.434613D-02
     35  -0.215173D-04 -0.548362D-04  0.409577D-04  0.433004D-02  0.999750D+00
     36  -0.192721D-02 -0.133550D-01  0.667769D-02  0.978759D-03 -0.890115D-05
     37  -0.233389D-02  0.410804D-02 -0.111794D-02  0.196075D-02 -0.150035D-04
     38   0.146018D-02 -0.593406D-03 -0.513350D-02 -0.230394D-02  0.173029D-04
     39  -0.132522D-02 -0.425425D-02 -0.615046D-02 -0.250708D-04  0.371023D-05
                36            37            38            39 
      1   0.567651D-05  0.263400D-06 -0.698847D-04  0.156330D-03
      2   0.115327D-04  0.597608D-05 -0.214969D-03  0.263005D-03
      3   0.119624D-02  0.510370D-03  0.831785D-03  0.341104D-03
      4   0.265991D-04  0.976375D-05  0.153005D-03 -0.410428D-04
      5  -0.120866D-04 -0.384013D-05 -0.139386D-02  0.196453D-03
      6  -0.192696D-02 -0.607099D-03  0.167037D-02  0.514409D-03
      7   0.177791D-04 -0.859522D-05 -0.829964D-04  0.613442D-06
      8  -0.190850D-02 -0.179204D-02  0.213926D-02  0.476746D-03
      9   0.312289D-04  0.277315D-04 -0.330258D-03  0.917078D-03
     10   0.666873D-04  0.467021D-04  0.268005D-03 -0.950398D-03
     11  -0.209484D-02 -0.248834D-02  0.130902D-02  0.214715D-03
     12   0.373821D-04 -0.150307D-04  0.399433D-04 -0.457724D-04
     13   0.193351D-03 -0.246913D-02  0.136974D-02 -0.343500D-04
     14   0.777256D-04  0.568231D-05 -0.425207D-04  0.153280D-03
     15   0.124921D-02  0.102542D-02  0.314529D-03 -0.173867D-03
     16   0.165696D-03  0.141982D-03 -0.239203D-04  0.109905D-03
     17  -0.459874D-02 -0.276623D-02  0.139293D-04  0.155886D-03
     18  -0.333364D-03 -0.179394D-02  0.174524D-02  0.160564D-03
     19   0.542035D-05  0.394856D-05 -0.407109D-04  0.472131D-04
     20   0.858809D-02  0.540489D-02 -0.250613D-02 -0.654926D-03
     21   0.118471D-01  0.787242D-02  0.736115D-02  0.128916D-02
     22  -0.243667D-05 -0.674454D-05  0.302774D-04 -0.324985D-04
     23  -0.601954D-02 -0.819895D-02 -0.368589D-03  0.322130D-03
     24  -0.181315D-01 -0.150850D-01  0.268108D-02  0.719262D-03
     25  -0.191341D-02  0.328478D-02 -0.134552D-02 -0.514335D-03
     26   0.198673D-03  0.241138D-02 -0.829270D-03  0.374378D-03
     27  -0.196464D-01 -0.705971D-02 -0.197442D-02  0.824718D-03
     28  -0.405711D-02 -0.379767D-02  0.460510D-02  0.238923D-03
     29   0.394220D-02  0.582574D-02 -0.252083D-02 -0.198081D-03
     30   0.131182D-02 -0.408814D-05 -0.355339D-03  0.342730D-03
     31   0.596171D-02  0.183663D-02 -0.320602D-03 -0.320572D-03
     32   0.113365D-01  0.692041D-02 -0.397304D-02  0.339044D-02
     33  -0.240404D-02 -0.228238D-02  0.624482D-02  0.686613D-02
     34   0.163098D-04 -0.229905D-02  0.233378D-02  0.223685D-04
     35   0.163497D-05  0.780373D-05 -0.536570D-05 -0.744095D-05
     36   0.877909D+00  0.477043D+00 -0.399829D-03 -0.165259D-02
     37  -0.477556D+00  0.878540D+00  0.276510D-02 -0.140710D-03
     38   0.170249D-02 -0.216513D-02  0.999889D+00 -0.590518D-02
     39   0.139826D-02  0.909868D-03  0.586006D-02  0.999948D+00

 Shift Vector
 ------------
                 1 
      1  -0.431358D-01
      2  -0.182211D+00
      3  -0.109615D+02
      4  -0.234478D+00
      5  -0.160527D+00
      6  -0.524498D+01
      7   0.176347D-02
      8   0.147128D+02
      9   0.163008D-01
     10   0.426389D-01
     11   0.767575D+01
     12  -0.305988D-01
     13  -0.143557D+01
     14   0.440935D-01
     15  -0.368437D+01
     16  -0.121451D-01
     17   0.166546D+01
     18   0.157760D+02
     19  -0.247257D-01
     20  -0.355633D+01
     21  -0.564506D+00
     22   0.984310D-02
     23  -0.422109D+01
     24   0.272948D+01
     25  -0.216346D+01
     26   0.369387D+00
     27  -0.201035D+01
     28  -0.441072D+00
     29   0.179024D+01
     30  -0.934940D+00
     31   0.419073D+00
     32  -0.592737D+00
     33   0.522038D+00
     34  -0.518439D+00
     35   0.360948D-03
     36   0.132743D+00
     37  -0.462006D+00
     38  -0.276002D+00
     39  -0.236234D-01

     ==================================================
              Calculations of Band Intensities
     ==================================================

 NOTE: Serial library FFTPack 4.0 used for FFT calculations

     ==================================================
                 Information on Transitions
     ==================================================

 Energy of the 0-0 transition:  26164.3058 cm^(-1)

     ==================================================
                       Final Spectrum
     ==================================================

 Band broadening simulated by mean of Gaussian functions with
 Half-Widths at Half-Maximum of  135.00 cm^(-1)

 Legend:
 -------
 1st col.: Energy (in cm^-1)
 2nd col.: Intensity at T=0K
 3rd col.: Intensity at T=300.0K
 Intensity: Emitted intensity (in microJ.mol^-1)
 ---------------------------------------------
    18164.6049    0.873984D+00    0.960325D+01
    18164.9385    0.874271D+00    0.960611D+01
    18165.2720    0.874559D+00    0.960896D+01
    18165.6056    0.874846D+00    0.961182D+01
    18165.9392    0.875135D+00    0.961469D+01
    18166.2727    0.875423D+00    0.961755D+01
    18166.6063    0.875712D+00    0.962041D+01
    18166.9399    0.876002D+00    0.962327D+01
    18167.2734    0.876292D+00    0.962614D+01
    18167.6070    0.876582D+00    0.962900D+01
    18167.9406    0.876873D+00    0.963187D+01
    18168.2741    0.877164D+00    0.963474D+01
    18168.6077    0.877455D+00    0.963760D+01
    18168.9412    0.877747D+00    0.964047D+01
    18169.2748    0.878039D+00    0.964334D+01
    18169.6084    0.878332D+00    0.964621D+01
    18169.9419    0.878625D+00    0.964908D+01
    18170.2755    0.878918D+00    0.965196D+01
    18170.6091    0.879212D+00    0.965483D+01
    18170.9426    0.879506D+00    0.965770D+01
    18171.2762    0.879801D+00    0.966058D+01
    18171.6098    0.880096D+00    0.966345D+01
    18171.9433    0.880391D+00    0.966633D+01
    18172.2769    0.880687D+00    0.966921D+01
    18172.6105    0.880983D+00    0.967209D+01
    18172.9440    0.881280D+00    0.967497D+01
    18173.2776    0.881577D+00    0.967785D+01
    18173.6111    0.881874D+00    0.968073D+01
    18173.9447    0.882172D+00    0.968361D+01
    18174.2783    0.882471D+00    0.968649D+01
    18174.6118    0.882769D+00    0.968937D+01
    18174.9454    0.883069D+00    0.969226D+01
    18175.2790    0.883368D+00    0.969514D+01
    18175.6125    0.883668D+00    0.969803D+01
    18175.9461    0.883969D+00    0.970092D+01
    18176.2797    0.884269D+00    0.970381D+01
    18176.6132    0.884571D+00    0.970669D+01
    18176.9468    0.884873D+00    0.970958D+01
    18177.2803    0.885175D+00    0.971247D+01
    18177.6139    0.885477D+00    0.971537D+01
    18177.9475    0.885780D+00    0.971826D+01
    18178.2810    0.886084D+00    0.972115D+01
    18178.6146    0.886388D+00    0.972405D+01
    18178.9482    0.886692D+00    0.972694D+01
    18179.2817    0.886997D+00    0.972984D+01
    18179.6153    0.887302D+00    0.973273D+01
    18179.9489    0.887608D+00    0.973563D+01
    18180.2824    0.887914D+00    0.973853D+01
    18180.6160    0.888220D+00    0.974143D+01
    18180.9496    0.888527D+00    0.974433D+01
    18181.2831    0.888834D+00    0.974723D+01
    18181.6167    0.889142D+00    0.975013D+01
    18181.9502    0.889451D+00    0.975304D+01
    18182.2838    0.889759D+00    0.975594D+01
    18182.6174    0.890069D+00    0.975884D+01
    18182.9509    0.890378D+00    0.976175D+01
    18183.2845    0.890688D+00    0.976466D+01
    18183.6181    0.890999D+00    0.976756D+01
[...]
    27052.7538    0.614467D-09    0.192677D+02
    27053.0874    0.600178D-09    0.192419D+02
    27053.4209    0.586555D-09    0.192162D+02
    27053.7545    0.572974D-09    0.191905D+02
    27054.0880    0.559473D-09    0.191648D+02
    27054.4216    0.546415D-09    0.191391D+02
    27054.7552    0.534048D-09    0.191134D+02
    27055.0887    0.521560D-09    0.190877D+02
    27055.4223    0.509377D-09    0.190620D+02
    27055.7559    0.497419D-09    0.190363D+02
    27056.0894    0.485974D-09    0.190106D+02
    27056.4230    0.474572D-09    0.189849D+02
    27056.7566    0.463468D-09    0.189592D+02
    27057.0901    0.452419D-09    0.189336D+02
    27057.4237    0.441866D-09    0.189079D+02
    27057.7573    0.431558D-09    0.188823D+02
    27058.0908    0.421395D-09    0.188566D+02
    27058.4244    0.411311D-09    0.188310D+02
    27058.7579    0.401783D-09    0.188053D+02
    27059.0915    0.392196D-09    0.187797D+02
    27059.4251    0.382815D-09    0.187541D+02
    27059.7586    0.373677D-09    0.187285D+02
    27060.0922    0.364722D-09    0.187029D+02
    27060.4258    0.356141D-09    0.186773D+02
    27060.7593    0.347540D-09    0.186517D+02
    27061.0929    0.339148D-09    0.186261D+02
    27061.4265    0.331346D-09    0.186005D+02
    27061.7600    0.323430D-09    0.185749D+02
    27062.0936    0.315613D-09    0.185493D+02
    27062.4272    0.307877D-09    0.185238D+02
    27062.7607    0.300598D-09    0.184982D+02
    27063.0943    0.293225D-09    0.184727D+02
    27063.4278    0.286100D-09    0.184471D+02
    27063.7614    0.279037D-09    0.184216D+02
    27064.0950    0.272274D-09    0.183961D+02
    27064.4285    0.265646D-09    0.183705D+02
    27064.7621    0.259032D-09    0.183450D+02
    27065.0957    0.252523D-09    0.183195D+02
    27065.4292    0.246539D-09    0.182940D+02
    27065.7628    0.240431D-09    0.182685D+02
    27066.0964    0.234331D-09    0.182430D+02
    27066.4299    0.228426D-09    0.182175D+02
    27066.7635    0.222964D-09    0.181921D+02
    27067.0970    0.217389D-09    0.181666D+02
    27067.4306    0.211926D-09    0.181411D+02
    27067.7642    0.206416D-09    0.181157D+02
    27068.0977    0.201332D-09    0.180902D+02
    27068.4313    0.196232D-09    0.180648D+02
    27068.7649    0.191201D-09    0.180394D+02
    27069.0984    0.186280D-09    0.180140D+02
    27069.4320    0.181667D-09    0.179885D+02
    27069.7656    0.176972D-09    0.179631D+02
    27070.0991    0.172283D-09    0.179377D+02
    27070.4327    0.167778D-09    0.179124D+02
    27070.7663    0.163624D-09    0.178870D+02
    27071.0998    0.159411D-09    0.178616D+02
    27071.4334    0.155089D-09    0.178362D+02
    27071.7669    0.150903D-09    0.178109D+02
    27072.1005    0.147136D-09    0.177855D+02
    27072.4341    0.143237D-09    0.177602D+02
    27072.7676    0.139387D-09    0.177349D+02
    27073.1012    0.135592D-09    0.177095D+02
    27073.4348    0.131995D-09    0.176842D+02
    27073.7683    0.128600D-09    0.176589D+02
    27074.1019    0.125017D-09    0.176336D+02
    27074.4355    0.121501D-09    0.176083D+02
    27074.7690    0.118296D-09    0.175830D+02
    27075.1026    0.115011D-09    0.175578D+02
    27075.4362    0.111843D-09    0.175325D+02
    27075.7697    0.108621D-09    0.175072D+02
    27076.1033    0.105764D-09    0.174820D+02
    27076.4368    0.102760D-09    0.174567D+02
    27076.7704    0.997175D-10    0.174315D+02
    27077.1040    0.968506D-10    0.174063D+02
    27077.4375    0.942103D-10    0.173811D+02
    27077.7711    0.916988D-10    0.173559D+02
    27078.1047    0.888644D-10    0.173307D+02
    27078.4382    0.862923D-10    0.173055D+02
    27078.7718    0.837088D-10    0.172803D+02
    27079.1054    0.811762D-10    0.172552D+02
    27079.4389    0.787881D-10    0.172300D+02
    27079.7725    0.763218D-10    0.172049D+02
    27080.1060    0.740845D-10    0.171797D+02
    27080.4396    0.718158D-10    0.171546D+02
    27080.7732    0.695802D-10    0.171295D+02
    27081.1067    0.673623D-10    0.171044D+02
    27081.4403    0.653111D-10    0.170793D+02
    27081.7739    0.633020D-10    0.170542D+02
    27082.1074    0.610967D-10    0.170291D+02
    27082.4410    0.590828D-10    0.170041D+02
    27082.7746    0.574693D-10    0.169790D+02
    27083.1081    0.556464D-10    0.169539D+02
    27083.4417    0.538301D-10    0.169289D+02
    27083.7753    0.517218D-10    0.169039D+02
    27084.1088    0.502569D-10    0.168789D+02
    27084.4424    0.484778D-10    0.168539D+02
    27084.7759    0.467565D-10    0.168289D+02
    27085.1095    0.450595D-10    0.168039D+02
    27085.4431    0.434358D-10    0.167789D+02
    27085.7766    0.418855D-10    0.167539D+02
    27086.1102    0.403172D-10    0.167290D+02
    27086.4438    0.387198D-10    0.167040D+02
    27086.7773    0.373472D-10    0.166791D+02
    27087.1109    0.360413D-10    0.166542D+02
    27087.4445    0.343365D-10    0.166293D+02
    27087.7780    0.330081D-10    0.166044D+02
    27088.1116    0.318087D-10    0.165795D+02
    27088.4452    0.305246D-10    0.165546D+02
    27088.7787    0.291445D-10    0.165298D+02
    27089.1123    0.279070D-10    0.165049D+02
    27089.4458    0.266871D-10    0.164801D+02
    27089.7794    0.255295D-10    0.164552D+02
    27090.1130    0.242670D-10    0.164304D+02
    27090.4465    0.229821D-10    0.164056D+02
    27090.7801    0.219847D-10    0.163808D+02
    27091.1137    0.208378D-10    0.163560D+02
    27091.4472    0.198312D-10    0.163313D+02
    27091.7808    0.186841D-10    0.163065D+02
    27092.1144    0.178066D-10    0.162817D+02
    27092.4479    0.168398D-10    0.162570D+02
    27092.7815    0.156612D-10    0.162323D+02
    27093.1150    0.146541D-10    0.162076D+02
    27093.4486    0.139435D-10    0.161829D+02
    27093.7822    0.130789D-10    0.161582D+02
    27094.1157    0.120515D-10    0.161335D+02
    27094.4493    0.110730D-10    0.161088D+02
    27094.7829    0.104312D-10    0.160842D+02
    27095.1164    0.965554D-11    0.160596D+02
    27095.4500    0.876826D-11    0.160349D+02
    27095.7836    0.785859D-11    0.160103D+02
    27096.1171    0.713621D-11    0.159857D+02
    27096.4507    0.643160D-11    0.159611D+02
    27096.7843    0.551052D-11    0.159366D+02
    27097.1178    0.470760D-11    0.159120D+02
    27097.4514    0.431068D-11    0.158874D+02
    27097.7849    0.352770D-11    0.158629D+02
    27098.1185    0.280713D-11    0.158384D+02
    27098.4521    0.196821D-11    0.158139D+02
    27098.7856    0.163356D-11    0.157894D+02
    27099.1192    0.993129D-12    0.157649D+02
    27099.4528    0.301301D-12    0.157404D+02
    27099.7863   -0.488802D-12    0.157160D+02
    27100.1199   -0.886136D-12    0.156915D+02
    27100.4535   -0.148217D-11    0.156671D+02
    27100.7870   -0.211399D-11    0.156427D+02
    27101.1206   -0.278828D-11    0.156183D+02
    27101.4542   -0.322376D-11    0.155939D+02
    27101.7877   -0.367937D-11    0.155695D+02
    27102.1213   -0.414397D-11    0.155452D+02
    27102.4548   -0.483189D-11    0.155208D+02
    27102.7884   -0.522736D-11    0.154965D+02
    27103.1220   -0.566753D-11    0.154722D+02
    27103.4555   -0.624844D-11    0.154479D+02
    27103.7891   -0.684057D-11    0.154236D+02
    27104.1227   -0.677837D-11    0.153993D+02
    27104.4562   -0.733261D-11    0.153751D+02
    27104.7898   -0.777970D-11    0.153508D+02
    27105.1234   -0.836308D-11    0.153266D+02
    27105.4569   -0.872314D-11    0.153024D+02
    27105.7905   -0.904973D-11    0.152782D+02
    27106.1240   -0.947241D-11    0.152540D+02
    27106.4576   -0.992418D-11    0.152298D+02
    27106.7912   -0.101369D-10    0.152056D+02
    27107.1247   -0.106446D-10    0.151815D+02
    27107.4583   -0.110384D-10    0.151574D+02
    27107.7919   -0.114256D-10    0.151333D+02
    27108.1254   -0.116295D-10    0.151092D+02
    27108.4590   -0.119653D-10    0.150851D+02
    27108.7926   -0.123972D-10    0.150610D+02
    27109.1261   -0.128337D-10    0.150370D+02
    27109.4597   -0.127493D-10    0.150129D+02
    27109.7933   -0.131926D-10    0.149889D+02
    27110.1268   -0.135106D-10    0.149649D+02
    27110.4604   -0.139159D-10    0.149409D+02
    27110.7939   -0.140440D-10    0.149170D+02
    27111.1275   -0.143689D-10    0.148930D+02
    27111.4611   -0.147609D-10    0.148691D+02
    27111.7946   -0.151551D-10    0.148451D+02
    27112.1282   -0.152990D-10    0.148212D+02
    27112.4618   -0.155904D-10    0.147973D+02
    27112.7953   -0.158417D-10    0.147735D+02
    27113.1289   -0.161198D-10    0.147496D+02
    27113.4625   -0.162458D-10    0.147257D+02
    27113.7960   -0.164255D-10    0.147019D+02
    27114.1296   -0.167059D-10    0.146781D+02
    27114.4632   -0.171273D-10    0.146543D+02
    27114.7967   -0.171236D-10    0.146305D+02
    27115.1303   -0.172967D-10    0.146068D+02
    27115.4638   -0.173714D-10    0.145830D+02
    27115.7974   -0.178443D-10    0.145593D+02
    27116.1310   -0.179101D-10    0.145356D+02
    27116.4645   -0.181481D-10    0.145119D+02
    27116.7981   -0.183549D-10    0.144882D+02
    27117.1317   -0.187653D-10    0.144646D+02
    27117.4652   -0.188110D-10    0.144409D+02
    27117.7988   -0.190021D-10    0.144173D+02
    27118.1324   -0.192783D-10    0.143937D+02
    27118.4659   -0.195366D-10    0.143701D+02
    27118.7995   -0.193988D-10    0.143465D+02
    27119.1330   -0.196057D-10    0.143230D+02
    27119.4666   -0.198529D-10    0.142994D+02
    27119.8002   -0.201270D-10    0.142759D+02
    27120.1337   -0.201459D-10    0.142524D+02
    27120.4673   -0.203081D-10    0.142289D+02
    27120.8009   -0.203650D-10    0.142054D+02
    27121.1344   -0.207713D-10    0.141820D+02
    27121.4680   -0.208306D-10    0.141585D+02
    27121.8016   -0.209032D-10    0.141351D+02
    27122.1351   -0.210207D-10    0.141117D+02
    27122.4687   -0.212703D-10    0.140884D+02
    27122.8023   -0.213072D-10    0.140650D+02
    27123.1358   -0.214023D-10    0.140417D+02
    27123.4694   -0.216229D-10    0.140183D+02
    27123.8029   -0.216418D-10    0.139950D+02
    27124.1365   -0.218736D-10    0.139717D+02
    27124.4701   -0.219374D-10    0.139485D+02
    27124.8036   -0.221020D-10    0.139252D+02
    27125.1372   -0.223204D-10    0.139020D+02
    27125.4708   -0.222073D-10    0.138788D+02
    27125.8043   -0.222353D-10    0.138556D+02
    27126.1379   -0.223775D-10    0.138324D+02
    27126.4715   -0.227125D-10    0.138092D+02
    27126.8050   -0.226486D-10    0.137861D+02
    27127.1386   -0.227663D-10    0.137630D+02
    27127.4722   -0.228503D-10    0.137399D+02
    27127.8057   -0.230061D-10    0.137168D+02
    27128.1393   -0.230139D-10    0.136937D+02
    27128.4728   -0.230913D-10    0.136707D+02
    27128.8064   -0.233255D-10    0.136477D+02
    27129.1400   -0.234881D-10    0.136247D+02
    27129.4735   -0.234018D-10    0.136017D+02
    27129.8071   -0.235038D-10    0.135787D+02
    27130.1407   -0.237449D-10    0.135558D+02
    27130.4742   -0.238828D-10    0.135329D+02
    27130.8078   -0.236687D-10    0.135100D+02
    27131.1414   -0.238089D-10    0.134871D+02
    27131.4749   -0.238146D-10    0.134642D+02
    27131.8085   -0.241230D-10    0.134414D+02
    27132.1420   -0.240502D-10    0.134185D+02
    27132.4756   -0.240984D-10    0.133957D+02
    27132.8092   -0.242678D-10    0.133729D+02
    27133.1427   -0.243296D-10    0.133502D+02
    27133.4763   -0.243555D-10    0.133274D+02
    27133.8099   -0.244913D-10    0.133047D+02
    27134.1434   -0.244678D-10    0.132820D+02
    27134.4770   -0.247135D-10    0.132593D+02
    27134.8106   -0.245869D-10    0.132366D+02
    27135.1441   -0.247563D-10    0.132140D+02
    27135.4777   -0.247217D-10    0.131914D+02
    27135.8113   -0.249944D-10    0.131688D+02
    27136.1448   -0.248744D-10    0.131462D+02
    27136.4784   -0.247747D-10    0.131236D+02
    27136.8119   -0.249465D-10    0.131011D+02
    27137.1455   -0.251115D-10    0.130786D+02
    27137.4791   -0.252541D-10    0.130561D+02
    27137.8126   -0.252442D-10    0.130336D+02
    27138.1462   -0.253150D-10    0.130111D+02
    27138.4798   -0.254936D-10    0.129887D+02
    27138.8133   -0.254005D-10    0.129663D+02
    27139.1469   -0.255006D-10    0.129439D+02
    27139.4805   -0.255624D-10    0.129215D+02
    27139.8140   -0.258219D-10    0.128992D+02
    27140.1476   -0.256368D-10    0.128768D+02
    27140.4812   -0.257256D-10    0.128545D+02
    27140.8147   -0.257965D-10    0.128322D+02
    27141.1483   -0.258629D-10    0.128100D+02
    27141.4818   -0.258260D-10    0.127877D+02
    27141.8154   -0.259485D-10    0.127655D+02
    27142.1490   -0.259543D-10    0.127433D+02
    27142.4825   -0.260903D-10    0.127211D+02
    27142.8161   -0.260916D-10    0.126990D+02
    27143.1497   -0.260165D-10    0.126768D+02
    27143.4832   -0.260470D-10    0.126547D+02
    27143.8168   -0.262572D-10    0.126326D+02
    27144.1504   -0.261866D-10    0.126106D+02
    27144.4839   -0.263362D-10    0.125885D+02
    27144.8175   -0.263173D-10    0.125665D+02
    27145.1510   -0.264938D-10    0.125445D+02
    27145.4846   -0.265064D-10    0.125225D+02
    27145.8182   -0.264088D-10    0.125005D+02
    27146.1517   -0.265449D-10    0.124786D+02
    27146.4853   -0.267215D-10    0.124567D+02
    27146.8189   -0.263587D-10    0.124348D+02
    27147.1524   -0.264095D-10    0.124129D+02
    27147.4860   -0.263928D-10    0.123911D+02
    27147.8196   -0.267043D-10    0.123693D+02
    27148.1531   -0.264471D-10    0.123475D+02
    27148.4867   -0.265338D-10    0.123257D+02
    27148.8203   -0.267352D-10    0.123039D+02
    27149.1538   -0.268107D-10    0.122822D+02
    27149.4874   -0.267131D-10    0.122605D+02
    27149.8209   -0.267954D-10    0.122388D+02
    27150.1545   -0.267517D-10    0.122171D+02
    27150.4881   -0.269194D-10    0.121955D+02
    27150.8216   -0.269657D-10    0.121739D+02
    27151.1552   -0.268996D-10    0.121523D+02
    27151.4888   -0.270381D-10    0.121307D+02
    27151.8223   -0.271047D-10    0.121092D+02
    27152.1559   -0.269800D-10    0.120876D+02
    27152.4895   -0.269746D-10    0.120661D+02
    27152.8230   -0.269692D-10    0.120446D+02
    27153.1566   -0.272270D-10    0.120232D+02
    27153.4902   -0.270956D-10    0.120018D+02
    27153.8237   -0.271262D-10    0.119804D+02
    27154.1573   -0.272940D-10    0.119590D+02
    27154.4908   -0.273066D-10    0.119376D+02
    27154.8244   -0.272809D-10    0.119163D+02
    27155.1580   -0.273700D-10    0.118950D+02
    27155.4915   -0.273196D-10    0.118737D+02
    27155.8251   -0.274965D-10    0.118524D+02
    27156.1587   -0.274978D-10    0.118312D+02
    27156.4922   -0.274407D-10    0.118099D+02
    27156.8258   -0.276041D-10    0.117887D+02
    27157.1594   -0.277900D-10    0.117676D+02
    27157.4929   -0.275145D-10    0.117464D+02
    27157.8265   -0.274348D-10    0.117253D+02
    27158.1600   -0.275600D-10    0.117042D+02
    27158.4936   -0.277234D-10    0.116831D+02
    27158.8272   -0.277225D-10    0.116621D+02
    27159.1607   -0.277126D-10    0.116411D+02
    27159.4943   -0.275947D-10    0.116201D+02
    27159.8279   -0.278752D-10    0.115991D+02
    27160.1614   -0.278699D-10    0.115781D+02
    27160.4950   -0.278712D-10    0.115572D+02
    27160.8286   -0.279942D-10    0.115363D+02
    27161.1621   -0.279911D-10    0.115154D+02
    27161.4957   -0.279339D-10    0.114946D+02
    27161.8293   -0.278970D-10    0.114737D+02
    27162.1628   -0.279569D-10    0.114529D+02
    27162.4964   -0.281678D-10    0.114321D+02
    27162.8299   -0.278155D-10    0.114114D+02
    27163.1635   -0.278844D-10    0.113907D+02
    27163.4971   -0.280841D-10    0.113699D+02
    27163.8306   -0.281012D-10    0.113493D+02
    27164.1642   -0.281386D-10    0.113286D+02
 ---------------------------------------------


 ----------------------------------------------------------------------

 Electric dipole moment (input orientation):
 (Debye = 10**-18 statcoulomb cm , SI units = C m)
                  (au)            (Debye)         (10**-30 SI)
   Tot        0.445921D+01      0.113342D+02      0.378067D+02
   x         -0.445616D+01     -0.113264D+02     -0.377809D+02
   y          0.158649D+00      0.403246D+00      0.134508D+01
   z         -0.445193D-01     -0.113157D+00     -0.377451D+00

 Dipole polarizability, Alpha (input orientation).
 (esu units = cm**3 , SI units = C**2 m**2 J**-1)
 Alpha(0;0):
               (au)            (10**-24 esu)      (10**-40 SI)
   iso        0.111499D+03      0.165225D+02      0.183838D+02
   aniso      0.132151D+03      0.195828D+02      0.217888D+02
   xx         0.189988D+03      0.281533D+02      0.313247D+02
   yx         0.290669D+01      0.430727D+00      0.479249D+00
   yy         0.106354D+03      0.157600D+02      0.175354D+02
   zx         0.206783D+01      0.306421D+00      0.340939D+00
   zy         0.505359D+01      0.748865D+00      0.833225D+00
   zz         0.381565D+02      0.565421D+01      0.629115D+01

 ----------------------------------------------------------------------

 Dipole oientation:
     6          0.14751245         -0.22722256         -0.90162425
     6          0.35460564          1.66236541          1.18939439
     7          0.21414869          0.40017289         -3.44318868
     6          0.17140710         -0.01493822          3.48756698
     1         -1.16651039          3.06571306          1.16426021
     1          2.14375103          2.70277456          1.16452097
     6         -0.11315117         -2.60565329          0.07885857
     8          0.02920568         -1.28997468         -5.06084875
     8          0.46097821          2.66603871         -4.01224794
     7          0.27543768          0.91974958          5.82915337
     6         -0.10199840         -2.50974573          2.75370642
     1         -0.29950547         -4.30657481         -1.04279446
     1          0.14841896         -0.21998487          7.35372460
     1          0.47805294          2.78831384          6.14800950
     1         -0.27722194         -4.11441918          4.00716965

 Electric dipole moment (dipole orientation):
 (Debye = 10**-18 statcoulomb cm , SI units = C m)
                  (au)            (Debye)         (10**-30 SI)
   Tot        0.445921D+01      0.113342D+02      0.378067D+02
   x          0.000000D+00      0.000000D+00      0.000000D+00
   y          0.000000D+00      0.000000D+00      0.000000D+00
   z          0.445921D+01      0.113342D+02      0.378067D+02

 Dipole polarizability, Alpha (dipole orientation).
 (esu units = cm**3 , SI units = C**2 m**2 J**-1)
 Alpha(0;0):
               (au)            (10**-24 esu)      (10**-40 SI)
   iso        0.111499D+03      0.165225D+02      0.183838D+02
   aniso      0.132151D+03      0.195828D+02      0.217888D+02
   xx         0.385809D+02      0.571710D+01      0.636113D+01
   yx         0.748907D+01      0.110977D+01      0.123478D+01
   yy         0.106219D+03      0.157401D+02      0.175132D+02
   zx        -0.584236D+00     -0.865749D-01     -0.963276D-01
   zy        -0.590693D+01     -0.875317D+00     -0.973922D+00
   zz         0.189698D+03      0.281103D+02      0.312769D+02

 ----------------------------------------------------------------------

 This type of calculation cannot be archived.


 OUR LITTLE SYSTEMS HAVE THEIR DAY,    
   THEY HAVE THEIR DAY AND CEASE TO BE.
   THEY ARE BUT BROKEN LIGHTS OF THEE, 
 AND THOU, OH LORD, ART MORE THAN THEY.
          -------------------          
 LET KNOWLEDGE GROW FROM MORE TO MORE, 
   BUT MORE OF REVERENCE IN US DWELL.  
   THAT MIND AND SOUL, ACCORDING WELL, 
 MAY MAKE ONE MUSIC AS BEFORE.....     
          -------------------          
                    LORD TENNYSON      
 Job cpu time:       0 days  0 hours  6 minutes 47.3 seconds.
 Elapsed time:       0 days  0 hours  0 minutes 46.3 seconds.
 File lengths (MBytes):  RWF=      6 Int=      0 D2E=      0 Chk=      9 Scr=      1
 Normal termination of Gaussian DV at Sat Oct 21 20:45:09 2023.
