 Set GAUSS_MDEF to "100GB".
 Set GAUSS_PDEF to "16".
 Entering Gaussian System, Link 0=g16
 Initial command:
 /usr/projects/cint/Gaussian/g16A03/g16/l1.exe "/tmp/akhanna2/GAUSSIAN_SCR/16598777/Gau-1405555.inp" -scrdir="/tmp/akhanna2/GAUSSIAN_SCR/16598777/"
 Default is to use a total of  16 processors:
                               16 via shared-memory
                                1 via Linda
 Entering Link 1 = /usr/projects/cint/Gaussian/g16A03/g16/l1.exe PID=   1405556.
  
 Copyright (c) 1988,1990,1992,1993,1995,1998,2003,2009,2016,
            Gaussian, Inc.  All Rights Reserved.
  
 This is part of the Gaussian(R) 16 program.  It is based on
 the Gaussian(R) 09 system (copyright 2009, Gaussian, Inc.),
 the Gaussian(R) 03 system (copyright 2003, Gaussian, Inc.),
 the Gaussian(R) 98 system (copyright 1998, Gaussian, Inc.),
 the Gaussian(R) 94 system (copyright 1995, Gaussian, Inc.),
 the Gaussian 92(TM) system (copyright 1992, Gaussian, Inc.),
 the Gaussian 90(TM) system (copyright 1990, Gaussian, Inc.),
 the Gaussian 88(TM) system (copyright 1988, Gaussian, Inc.),
 the Gaussian 86(TM) system (copyright 1986, Carnegie Mellon
 University), and the Gaussian 82(TM) system (copyright 1983,
 Carnegie Mellon University). Gaussian is a federally registered
 trademark of Gaussian, Inc.
  
 This software contains proprietary and confidential information,
 including trade secrets, belonging to Gaussian, Inc.
  
 This software is provided under written license and may be
 used, copied, transmitted, or stored only in accord with that
 written license.
  
 The following legend is applicable only to US Government
 contracts under FAR:
  
                    RESTRICTED RIGHTS LEGEND
  
 Use, reproduction and disclosure by the US Government is
 subject to restrictions as set forth in subparagraphs (a)
 and (c) of the Commercial Computer Software - Restricted
 Rights clause in FAR 52.227-19.
  
 Gaussian, Inc.
 340 Quinnipiac St., Bldg. 40, Wallingford CT 06492
  
  
 ---------------------------------------------------------------
 Warning -- This program may not be used in any manner that
 competes with the business of Gaussian, Inc. or will provide
 assistance to any competitor of Gaussian, Inc.  The licensee
 of this program is prohibited from giving any competitor of
 Gaussian, Inc. access to this program.  By using this program,
 the user acknowledges that Gaussian, Inc. is engaged in the
 business of creating and licensing software in the field of
 computational chemistry and represents and warrants to the
 licensee that it is not a competitor of Gaussian, Inc. and that
 it will not use this program in any manner prohibited above.
 ---------------------------------------------------------------
  

 Cite this work as:
 Gaussian 16, Revision A.03,
 M. J. Frisch, G. W. Trucks, H. B. Schlegel, G. E. Scuseria, 
 M. A. Robb, J. R. Cheeseman, G. Scalmani, V. Barone, 
 G. A. Petersson, H. Nakatsuji, X. Li, M. Caricato, A. V. Marenich, 
 J. Bloino, B. G. Janesko, R. Gomperts, B. Mennucci, H. P. Hratchian, 
 J. V. Ortiz, A. F. Izmaylov, J. L. Sonnenberg, D. Williams-Young, 
 F. Ding, F. Lipparini, F. Egidi, J. Goings, B. Peng, A. Petrone, 
 T. Henderson, D. Ranasinghe, V. G. Zakrzewski, J. Gao, N. Rega, 
 G. Zheng, W. Liang, M. Hada, M. Ehara, K. Toyota, R. Fukuda, 
 J. Hasegawa, M. Ishida, T. Nakajima, Y. Honda, O. Kitao, H. Nakai, 
 T. Vreven, K. Throssell, J. A. Montgomery, Jr., J. E. Peralta, 
 F. Ogliaro, M. J. Bearpark, J. J. Heyd, E. N. Brothers, K. N. Kudin, 
 V. N. Staroverov, T. A. Keith, R. Kobayashi, J. Normand, 
 K. Raghavachari, A. P. Rendell, J. C. Burant, S. S. Iyengar, 
 J. Tomasi, M. Cossi, J. M. Millam, M. Klene, C. Adamo, R. Cammi, 
 J. W. Ochterski, R. L. Martin, K. Morokuma, O. Farkas, 
 J. B. Foresman, and D. J. Fox, Gaussian, Inc., Wallingford CT, 2016.
 
 ******************************************
 Gaussian 16:  ES64L-G16RevA.03 25-Dec-2016
                23-Jul-2025 
 ******************************************
 %oldchk=p_nitro_biphenyl_single_nbd_aniline_derivative.chk
 %chk=SP_ExSt_TDA_p_nitro_biphenyl_single_nbd_aniline_derivative.chk
 Copying data from "p_nitro_biphenyl_single_nbd_aniline_derivative.chk" to current chk file "SP_ExSt_TDA_p_nitro_biphenyl_single_nbd_aniline_derivative.chk"
 IOpt=  2 FromEx=T IUOpen= 4 IOptOp= 5 NList=   0 IFRang= 0 IUIn= 4 IUOut= 2.
 ----------------------------------------------------------------------
 # p TDA(nstates=10, root=1) CAM-B3LYP/6-31G(d) geom=allcheck guess=rea
 d nosymm scrf=check iop(9/40=4)
 ----------------------------------------------------------------------
 1/29=7,38=1,40=1,172=1/1;
 2/12=2,15=1,40=1/2;
 3/5=1,6=6,7=1,11=9,14=-4,25=1,30=1,70=2,74=-40,116=-2/1,2,3,8;
 4/5=1/1;
 5/5=2,38=6/2;
 8/6=1,10=2,107=1,108=10/1;
 9/8=1,40=4,41=10,42=1/14;
 6/7=2,8=2,9=2,10=2/1;
 99/5=1,9=1/99;
 Structure from the checkpoint file:  "SP_ExSt_TDA_p_nitro_biphenyl_single_nbd_aniline_derivative.chk"
 ----------------------------------------------
 p_nitro_biphenyl_single_nbd_aniline_derivative
 ----------------------------------------------
 Charge =  0 Multiplicity = 1
 Redundant internal coordinates found in file.  (old form).
 C,0,-0.3813074563,0.0220221103,-0.2434500286
 C,0,0.7588681779,-0.2052528691,0.615081466
 C,0,-1.5614033164,0.249164727,0.4269850852
 C,0,0.6752326279,-0.1923702283,2.0467461473
 N,0,2.0004652225,-0.4777155077,0.2861243021
 C,0,-0.2891149422,-0.0028938003,-1.7037606477
 C,0,-1.6647550504,0.2621324605,1.8422258853
 H,0,-2.4623991601,0.4575386039,-0.1361272257
 C,0,-0.5908824157,0.0555444686,2.657353517
 N,0,1.8648788434,-0.4467438305,2.5404553569
 O,0,2.6602477761,-0.6169053659,1.45036265
 C,0,-1.4021717369,-0.3676450441,-2.4797030084
 C,0,0.8857495717,0.3539980235,-2.3855084198
 H,0,-2.6270569284,0.4550234378,2.2998954529
 N,0,-0.7504770444,0.0903048093,4.0889268165
 C,0,-1.3519255168,-0.3744928563,-3.858389356
 H,0,-2.3176716372,-0.6871381695,-1.993026471
 C,0,0.9424124939,0.3606848638,-3.765291192
 H,0,1.7666154323,0.6451062767,-1.8268419827
 O,0,-1.8677206032,0.3069520159,4.5456066723
 O,0,0.2456119873,-0.099801002,4.7758843172
 C,0,-0.1760665222,-0.0032039377,-4.533037791
 H,0,-2.2236451522,-0.6771334764,-4.4305801225
 H,0,1.8596454053,0.6549235056,-4.2663964281
 N,0,-0.1363891933,0.0461840396,-5.9060636204
 H,0,0.7760146827,0.0171618475,-6.3400121874
 H,0,-0.8327239154,-0.490163752,-6.4050487276
 Recover connectivity data from disk.
                           ----------------------------
                           !    Current Parameters    !
                           ! (Angstroms and Degrees)  !
 --------------------------                            --------------------------
 ! Name  Definition              Value                                          !
 --------------------------------------------------------------------------------
 ! R1    R(1,2)                  1.4452                                         !
 ! R2    R(1,3)                  1.3761                                         !
 ! R3    R(1,6)                  1.4634                                         !
 ! R4    R(2,4)                  1.4342                                         !
 ! R5    R(2,5)                  1.313                                          !
 ! R6    R(3,7)                  1.4191                                         !
 ! R7    R(3,8)                  1.0827                                         !
 ! R8    R(4,9)                  1.4274                                         !
 ! R9    R(4,10)                 1.3129                                         !
 ! R10   R(5,11)                 1.3454                                         !
 ! R11   R(6,12)                 1.405                                          !
 ! R12   R(6,13)                 1.4044                                         !
 ! R13   R(7,9)                  1.3639                                         !
 ! R14   R(7,14)                 1.0829                                         !
 ! R15   R(9,15)                 1.4409                                         !
 ! R16   R(10,11)                1.3601                                         !
 ! R17   R(12,16)                1.3796                                         !
 ! R18   R(12,17)                1.0849                                         !
 ! R19   R(13,18)                1.381                                          !
 ! R20   R(13,19)                1.0829                                         !
 ! R21   R(15,20)                1.2263                                         !
 ! R22   R(15,21)                1.2248                                         !
 ! R23   R(16,22)                1.4056                                         !
 ! R24   R(16,23)                1.0858                                         !
 ! R25   R(18,22)                1.4046                                         !
 ! R26   R(18,24)                1.0858                                         !
 ! R27   R(22,25)                1.3745                                         !
 ! R28   R(25,26)                1.0108                                         !
 ! R29   R(25,27)                1.0107                                         !
 ! A1    A(2,1,3)              114.3986                                         !
 ! A2    A(2,1,6)              122.7106                                         !
 ! A3    A(3,1,6)              122.8873                                         !
 ! A4    A(1,2,4)              123.0646                                         !
 ! A5    A(1,2,5)              129.036                                          !
 ! A6    A(4,2,5)              107.885                                          !
 ! A7    A(1,3,7)              123.3562                                         !
 ! A8    A(1,3,8)              119.472                                          !
 ! A9    A(7,3,8)              117.1497                                         !
 ! A10   A(2,4,9)              118.7071                                         !
 ! A11   A(2,4,10)             108.7117                                         !
 ! A12   A(9,4,10)             132.5741                                         !
 ! A13   A(2,5,11)             105.5685                                         !
 ! A14   A(1,6,12)             120.3717                                         !
 ! A15   A(1,6,13)             122.1922                                         !
 ! A16   A(12,6,13)            117.4257                                         !
 ! A17   A(3,7,9)              122.4995                                         !
 ! A18   A(3,7,14)             119.1985                                         !
 ! A19   A(9,7,14)             118.2975                                         !
 ! A20   A(4,9,7)              117.9721                                         !
 ! A21   A(4,9,15)             121.8348                                         !
 ! A22   A(7,9,15)             120.1931                                         !
 ! A23   A(4,10,11)            104.6394                                         !
 ! A24   A(5,11,10)            113.1932                                         !
 ! A25   A(6,12,16)            121.6235                                         !
 ! A26   A(6,12,17)            119.8154                                         !
 ! A27   A(16,12,17)           118.5253                                         !
 ! A28   A(6,13,18)            121.37                                           !
 ! A29   A(6,13,19)            119.8893                                         !
 ! A30   A(18,13,19)           118.735                                          !
 ! A31   A(9,15,20)            118.3719                                         !
 ! A32   A(9,15,21)            117.6078                                         !
 ! A33   A(20,15,21)           124.0203                                         !
 ! A34   A(12,16,22)           120.5847                                         !
 ! A35   A(12,16,23)           119.9193                                         !
 ! A36   A(22,16,23)           119.4938                                         !
 ! A37   A(13,18,22)           120.811                                          !
 ! A38   A(13,18,24)           119.807                                          !
 ! A39   A(22,18,24)           119.3814                                         !
 ! A40   A(16,22,18)           118.1799                                         !
 ! A41   A(16,22,25)           120.8712                                         !
 ! A42   A(18,22,25)           120.9123                                         !
 ! A43   A(22,25,26)           116.9941                                         !
 ! A44   A(22,25,27)           117.0145                                         !
 ! A45   A(26,25,27)           113.2484                                         !
 ! D1    D(3,1,2,4)             -0.1856                                         !
 ! D2    D(3,1,2,5)            178.2614                                         !
 ! D3    D(6,1,2,4)           -179.5245                                         !
 ! D4    D(6,1,2,5)             -1.0775                                         !
 ! D5    D(2,1,3,7)              0.0054                                         !
 ! D6    D(2,1,3,8)            178.2475                                         !
 ! D7    D(6,1,3,7)            179.343                                          !
 ! D8    D(6,1,3,8)             -2.415                                          !
 ! D9    D(2,1,6,12)           151.6722                                         !
 ! D10   D(2,1,6,13)           -29.534                                          !
 ! D11   D(3,1,6,12)           -27.6109                                         !
 ! D12   D(3,1,6,13)           151.183                                          !
 ! D13   D(1,2,4,9)              0.0224                                         !
 ! D14   D(1,2,4,10)           179.1747                                         !
 ! D15   D(5,2,4,9)           -178.71                                           !
 ! D16   D(5,2,4,10)             0.4422                                         !
 ! D17   D(1,2,5,11)          -179.0984                                         !
 ! D18   D(4,2,5,11)            -0.466                                          !
 ! D19   D(1,3,7,9)              0.361                                          !
 ! D20   D(1,3,7,14)           179.5708                                         !
 ! D21   D(8,3,7,9)           -177.919                                          !
 ! D22   D(8,3,7,14)             1.2908                                         !
 ! D23   D(2,4,9,7)              0.3281                                         !
 ! D24   D(2,4,9,15)          -179.6826                                         !
 ! D25   D(10,4,9,7)          -178.5815                                         !
 ! D26   D(10,4,9,15)            1.4078                                         !
 ! D27   D(2,4,10,11)           -0.2102                                         !
 ! D28   D(9,4,10,11)          178.7801                                         !
 ! D29   D(2,5,11,10)            0.3606                                         !
 ! D30   D(1,6,12,16)          178.7026                                         !
 ! D31   D(1,6,12,17)           -3.5049                                         !
 ! D32   D(13,6,12,16)          -0.1474                                         !
 ! D33   D(13,6,12,17)         177.6451                                         !
 ! D34   D(1,6,13,18)         -178.1461                                         !
 ! D35   D(1,6,13,19)            0.9696                                         !
 ! D36   D(12,6,13,18)           0.6815                                         !
 ! D37   D(12,6,13,19)         179.7972                                         !
 ! D38   D(3,7,9,4)             -0.5189                                         !
 ! D39   D(3,7,9,15)           179.4916                                         !
 ! D40   D(14,7,9,4)          -179.7356                                         !
 ! D41   D(14,7,9,15)            0.275                                          !
 ! D42   D(4,9,15,20)         -179.9007                                         !
 ! D43   D(4,9,15,21)            0.099                                          !
 ! D44   D(7,9,15,20)            0.0883                                         !
 ! D45   D(7,9,15,21)         -179.912                                          !
 ! D46   D(4,10,11,5)           -0.0828                                         !
 ! D47   D(6,12,16,22)          -0.4786                                         !
 ! D48   D(6,12,16,23)         178.9806                                         !
 ! D49   D(17,12,16,22)       -178.2986                                         !
 ! D50   D(17,12,16,23)          1.1605                                         !
 ! D51   D(6,13,18,22)          -0.5925                                         !
 ! D52   D(6,13,18,24)         179.1071                                         !
 ! D53   D(19,13,18,22)       -179.7181                                         !
 ! D54   D(19,13,18,24)         -0.0185                                         !
 ! D55   D(12,16,22,18)          0.5719                                         !
 ! D56   D(12,16,22,25)       -177.2478                                         !
 ! D57   D(23,16,22,18)       -178.8895                                         !
 ! D58   D(23,16,22,25)          3.2908                                         !
 ! D59   D(13,18,22,16)         -0.0442                                         !
 ! D60   D(13,18,22,25)        177.7746                                         !
 ! D61   D(24,18,22,16)       -179.745                                          !
 ! D62   D(24,18,22,25)         -1.9262                                         !
 ! D63   D(16,22,25,26)       -160.4557                                         !
 ! D64   D(16,22,25,27)        -21.2601                                         !
 ! D65   D(18,22,25,26)         21.7844                                         !
 ! D66   D(18,22,25,27)        160.98                                           !
 --------------------------------------------------------------------------------
                          Input orientation:                          
 ---------------------------------------------------------------------
 Center     Atomic      Atomic             Coordinates (Angstroms)
 Number     Number       Type             X           Y           Z
 ---------------------------------------------------------------------
      1          6           0       -0.381307    0.022022   -0.243450
      2          6           0        0.758868   -0.205253    0.615081
      3          6           0       -1.561403    0.249165    0.426985
      4          6           0        0.675233   -0.192370    2.046746
      5          7           0        2.000465   -0.477716    0.286124
      6          6           0       -0.289115   -0.002894   -1.703761
      7          6           0       -1.664755    0.262132    1.842226
      8          1           0       -2.462399    0.457539   -0.136127
      9          6           0       -0.590882    0.055544    2.657354
     10          7           0        1.864879   -0.446744    2.540455
     11          8           0        2.660248   -0.616905    1.450363
     12          6           0       -1.402172   -0.367645   -2.479703
     13          6           0        0.885750    0.353998   -2.385508
     14          1           0       -2.627057    0.455023    2.299895
     15          7           0       -0.750477    0.090305    4.088927
     16          6           0       -1.351926   -0.374493   -3.858389
     17          1           0       -2.317672   -0.687138   -1.993026
     18          6           0        0.942412    0.360685   -3.765291
     19          1           0        1.766615    0.645106   -1.826842
     20          8           0       -1.867721    0.306952    4.545607
     21          8           0        0.245612   -0.099801    4.775884
     22          6           0       -0.176067   -0.003204   -4.533038
     23          1           0       -2.223645   -0.677133   -4.430580
     24          1           0        1.859645    0.654924   -4.266396
     25          7           0       -0.136389    0.046184   -5.906064
     26          1           0        0.776015    0.017162   -6.340012
     27          1           0       -0.832724   -0.490164   -6.405049
 ---------------------------------------------------------------------
                    Distance matrix (angstroms):
                    1          2          3          4          5
     1  C    0.000000
     2  C    1.445244   0.000000
     3  C    1.376119   2.371821   0.000000
     4  C    2.531253   1.434163   2.796626   0.000000
     5  N    2.490588   1.313016   3.638008   2.222038   0.000000
     6  C    1.463430   2.552694   2.494460   3.877134   3.070387
     7  C    2.460678   2.756498   1.419069   2.392476   4.050021
     8  H    2.128881   3.373451   1.082732   3.877119   4.579318
     9  C    2.908557   2.461852   2.440070   1.427358   3.552770
    10  N    3.607662   2.233527   4.085395   1.312902   2.258617
    11  O    3.539532   2.117167   4.429415   2.115700   1.345414
    12  C    2.488942   3.778115   2.975675   4.983480   4.386326
    13  C    2.510788   3.054898   3.729567   4.470762   3.011969
    14  H    3.420451   3.839147   2.164668   3.374658   5.132177
    15  N    4.348613   3.799089   3.754019   2.506602   4.727752
    16  C    3.763922   4.949347   4.335581   6.246052   5.331620
    17  H    2.704336   4.061962   2.702788   5.051934   4.887197
    18  C    3.777604   4.420593   4.884333   5.844402   4.270405
    19  H    2.740244   2.775186   4.038838   4.110617   2.404172
    20  O    5.022517   4.755034   4.130401   3.600033   5.807044
    21  O    5.059801   4.193666   4.722288   2.764297   4.835315
    22  C    4.294569   5.236226   5.156033   6.637323   5.309122
    23  H    4.627644   5.880201   4.989242   7.112963   6.334838
    24  H    4.648283   5.077444   5.822031   6.478928   4.693415
    25  N    5.667959   6.587112   6.494565   7.997676   6.571439
    26  H    6.205440   6.958670   7.163072   8.389981   6.756469
    27  H    6.199307   7.203927   6.910446   8.590428   7.266286
                    6          7          8          9         10
     6  C    0.000000
     7  C    3.812695   0.000000
     8  H    2.718940   2.142032   0.000000
     9  C    4.371933   1.363933   3.386401   0.000000
    10  N    4.780174   3.667199   5.167897   2.509327   0.000000
    11  O    4.361679   4.430792   5.469268   3.532543   1.360099
    12  C    1.405000   4.375459   2.701362   5.217914   5.990147
    13  C    1.404442   4.938345   4.034915   5.263076   5.085765
    14  H    4.658854   1.082910   2.441582   2.105556   4.587869
    15  N    5.811778   2.431685   4.573469   1.440861   3.086466
    16  C    2.431065   5.744577   3.972488   6.574118   7.162281
    17  H    2.160303   4.004569   2.186162   5.015916   6.172842
    18  C    2.428736   6.184762   4.977244   6.610179   6.423809
    19  H    2.158954   5.038158   4.558318   5.100332   4.502786
    20  O    6.453107   2.711360   4.721753   2.293256   4.303602
    21  O    6.502394   3.519496   5.636649   2.282987   2.782002
    22  C    2.831535   6.552143   4.977190   7.202586   7.375398
    23  H    3.410653   6.367313   4.448237   7.310372   8.084828
    24  H    3.408372   7.063353   5.981484   7.369034   6.895428
    25  N    4.205364   7.900540   6.234717   8.575475   8.694351
    26  H    4.757072   8.542036   7.012093   9.100685   8.958992
    27  H    4.757631   8.323206   6.546248   9.082038   9.343500
                   11         12         13         14         15
    11  O    0.000000
    12  C    5.657809   0.000000
    13  C    4.336520   2.400880   0.000000
    14  H    5.461349   5.002168   5.856878   0.000000
    15  N    4.369807   6.616746   6.683194   2.618245   0.000000
    16  C    6.658765   1.379619   2.776197   6.343385   7.983584
    17  H    6.053226   1.084929   3.391152   4.453025   6.328560
    18  C    5.577606   2.771331   1.380962   7.038217   8.039137
    19  H    3.623717   3.390148   1.082948   6.030792   6.452897
    20  O    5.562063   7.072962   7.458161   2.375234   1.226265
    21  O    4.142096   7.445165   7.204253   3.832829   1.224845
    22  C    6.649992   2.419160   2.422174   7.273672   8.641583
    23  H    7.644706   2.139281   3.861850   6.836945   8.679930
    24  H    5.910994   3.857120   2.139338   7.955290   8.771714
    25  N    7.897966   3.676059   3.678835   8.585356  10.013935
    26  H    8.040045   4.449108   3.970340   9.296269  10.540318
    27  H    8.597930   3.968327   4.452243   8.938068  10.510339
                   16         17         18         19         20
    16  C    0.000000
    17  H    2.123674   0.000000
    18  C    2.411046   3.855775   0.000000
    19  H    3.859024   4.299290   2.125510   0.000000
    20  O    8.447340   6.629057   8.773298   7.343763   0.000000
    21  O    8.785116   7.261786   8.581915   6.816475   2.164405
    22  C    1.405578   3.392034   1.404580   3.393791   9.240112
    23  H    1.085766   2.439387   3.397587   4.944689   9.036982
    24  H    3.397110   4.941591   1.085817   2.441347   9.574223
    25  N    2.418154   4.539561   2.417774   4.540945  10.597307
    26  H    3.292412   5.381749   2.602861   4.663079  11.205803
    27  H    2.601619   4.659379   3.292928   5.385664  11.028303
                   21         22         23         24         25
    21  O    0.000000
    22  C    9.318969   0.000000
    23  H    9.549321   2.158068   0.000000
    24  H    9.216157   2.156004   4.298208   0.000000
    25  N   10.689773   1.374487   2.656478   2.653908   0.000000
    26  H   11.129158   2.042555   3.622973   2.425052   1.010759
    27  H   11.239593   2.042732   2.422426   3.624074   1.010711
                   26         27
    26  H    0.000000
    27  H    1.688090   0.000000
 Symmetry turned off by external request.
 Stoichiometry    C12H8N4O3
 Framework group  C1[X(C12H8N4O3)]
 Deg. of freedom    75
 Full point group                 C1      NOp   1
 Rotational constants (GHZ):           1.0391038           0.1909444           0.1632076
 Standard basis: 6-31G(d) (6D, 7F)
   301 basis functions,   564 primitive gaussians,   301 cartesian basis functions
    66 alpha electrons       66 beta electrons
       nuclear repulsion energy      1318.4942551061 Hartrees.
 NAtoms=   27 NActive=   27 NUniq=   27 SFac= 1.00D+00 NAtFMM=   60 NAOKFM=F Big=F
 Integral buffers will be    131072 words long.
 Raffenetti 1 integral format.
 Two-electron integral symmetry is turned off.
 ------------------------------------------------------------------------------
 Polarizable Continuum Model (PCM)
 =================================
 Model                : PCM.
 Atomic radii         : UFF (Universal Force Field).
 Polarization charges : Total charges.
 Charge compensation  : None.
 Solution method      : Matrix inversion.
 Cavity type          : Scaled VdW (van der Waals Surface) (Alpha=1.100).
 Cavity algorithm     : GePol (No added spheres)
                        Default sphere list used, NSphG=   27.
                        Lebedev-Laikov grids with approx.  5.0 points / Ang**2.
                        Smoothing algorithm: York/Karplus (Gamma=1.0000).
                        Polarization charges: spherical gaussians, with
                                              point-specific exponents (IZeta= 3).
                        Self-potential: point-specific (ISelfS= 7).
                        Self-field    : sphere-specific E.n sum rule (ISelfD= 2).
 Solvent              : DiMethylSulfoxide, Eps=  46.826000 Eps(inf)=   2.007889
 ------------------------------------------------------------------------------
 One-electron integrals computed using PRISM.
 NBasis=   301 RedAO= T EigKep=  2.61D-04  NBF=   301
 NBsUse=   301 1.00D-06 EigRej= -1.00D+00 NBFU=   301
 Initial guess from the checkpoint file:  "SP_ExSt_TDA_p_nitro_biphenyl_single_nbd_aniline_derivative.chk"
 B after Tr=     0.000000    0.000000    0.000000
         Rot=    1.000000    0.000000    0.000000    0.000000 Ang=   0.00 deg.
 Requested convergence on RMS density matrix=1.00D-08 within 128 cycles.
 Requested convergence on MAX density matrix=1.00D-06.
 Requested convergence on             energy=1.00D-06.
 No special actions if energy rises.
 Inv3:  Mode=1 IEnd=    15691107.
 Iteration    1 A*A^-1 deviation from unit magnitude is 6.88D-15 for    442.
 Iteration    1 A*A^-1 deviation from orthogonality  is 3.99D-15 for   1896    510.
 Iteration    1 A^-1*A deviation from unit magnitude is 5.77D-15 for   2268.
 Iteration    1 A^-1*A deviation from orthogonality  is 1.72D-15 for   2264   1725.
 Error on total polarization charges =  0.00686
 SCF Done:  E(RCAM-B3LYP) =  -906.174078094     A.U. after    1 cycles
            NFock=  1  Conv=0.26D-08     -V/T= 2.0086
 DoSCS=F DFT=T ScalE2(SS,OS)=  1.000000  1.000000
 ExpMin= 1.61D-01 ExpMax= 5.48D+03 ExpMxC= 8.25D+02 IAcc=3 IRadAn=         5 AccDes= 0.00D+00
 HarFok:  IExCor=  205 AccDes= 0.00D+00 IRadAn=         5 IDoV=-2 UseB2=F ITyADJ=14
 ICtDFT= 12500011 ScaDFX=  1.000000  1.000000  1.000000  1.000000
 Range of M.O.s used for correlation:    20   301
 NBasis=   301 NAE=    66 NBE=    66 NFC=    19 NFV=     0
 NROrb=    282 NOA=    47 NOB=    47 NVA=   235 NVB=   235
 Keep R1, R2, and R3 ints in memory in canonical form, NReq=6463667498.
 NEqPCM:  Using non-equilibrium solvation (IEInf=1, Eps=  46.8260, EpsInf=   2.0079)
 Inv3:  Mode=1 IEnd=    15691107.
 Iteration    1 A*A^-1 deviation from unit magnitude is 8.10D-15 for    447.
 Iteration    1 A*A^-1 deviation from orthogonality  is 3.33D-15 for    472    447.
 Iteration    1 A^-1*A deviation from unit magnitude is 6.33D-15 for    447.
 Iteration    1 A^-1*A deviation from orthogonality  is 2.61D-15 for   2261   1788.
    40 initial guesses have been made.
 Convergence on wavefunction:    0.001000000000000
 Iteration     1 Dimension    40 NMult     0 NNew     40
 CISAX will form    40 AO SS matrices at one time.
 New state      2 was old state      7
 New state      4 was old state      2
 New state      5 was old state     13
 New state      6 was old state      4
 New state      7 was old state      6
 New state      8 was old state     15
 New state      9 was old state      8
 New state     10 was old state      5
 Iteration     2 Dimension    80 NMult    40 NNew     40
 New state      4 was old state      6
 New state      6 was old state      4
 New state      8 was old state      9
 New state      9 was old state      8
 Iteration     3 Dimension    90 NMult    80 NNew     10
 Iteration     4 Dimension   100 NMult    90 NNew     10
 Iteration     5 Dimension   107 NMult   100 NNew      7
 Iteration     6 Dimension   108 NMult   107 NNew      1
 ***********************************************************************
 Excited states from <AA,BB:AA,BB> singles matrix:
 ***********************************************************************
 
 Ground to excited state transition densities written to RWF  633
 Ground to excited state transition electric dipole moments (Au):
       state          X           Y           Z        Dip. S.      Osc.
         1        -0.1716      0.0226      3.3888     11.5139      0.8342
         2         0.0083      0.0119     -0.0142      0.0004      0.0000
         3         0.0401      0.0535      0.1545      0.0283      0.0031
         4        -0.2432      0.0338      0.8677      0.8132      0.0901
         5         0.1701     -0.0718     -0.6043      0.3993      0.0443
         6         0.1874     -0.0042     -0.8546      0.7654      0.0876
         7         0.7823     -0.0572      0.6277      1.0094      0.1270
         8        -0.2611     -0.2929      0.0611      0.1577      0.0201
         9        -0.1963     -0.0551     -0.0085      0.0416      0.0054
        10        -0.3412      0.0145      1.2512      1.6822      0.2312
 Ground to excited state transition velocity dipole moments (Au):
       state          X           Y           Z        Dip. S.      Osc.
         1        -0.0093     -0.0053     -0.1431      0.0206      0.1263
         2         0.0007      0.0012      0.0000      0.0000      0.0000
         3         0.0103      0.0054     -0.0051      0.0002      0.0007
         4         0.0068      0.0046     -0.0215      0.0005      0.0021
         5        -0.0031      0.0112      0.0146      0.0004      0.0014
         6        -0.0177      0.0041      0.1359      0.0188      0.0730
         7         0.0232     -0.0051     -0.0712      0.0056      0.0199
         8        -0.0049      0.0005     -0.0049      0.0000      0.0002
         9         0.0005      0.0026      0.0097      0.0001      0.0003
        10        -0.0054     -0.0117     -0.1991      0.0398      0.1288
 Ground to excited state transition magnetic dipole moments (Au):
       state          X           Y           Z
         1        -0.1543     -0.6128     -0.0456
         2        -0.0665      0.0456     -0.6027
         3        -0.2942      0.3259     -0.0040
         4        -0.6786     -0.4921     -0.0295
         5        -0.7780      0.5433     -0.0625
         6         0.0057     -0.1329      0.0151
         7        -0.0015      0.2567     -0.0248
         8         0.0478      0.2332      0.0067
         9        -0.7441      0.0914      0.0229
        10        -0.1520     -0.1088     -0.0406
 Ground to excited state transition velocity quadrupole moments (Au):
       state          XX          YY          ZZ          XY          XZ          YZ
         1         0.0590      0.0272      0.7558      0.1797      0.2443      0.0294
         2        -0.0086      0.0050     -0.0024     -0.0122     -0.0030      0.0108
         3         0.0007      0.0051     -0.0097     -0.0019      0.0438      0.0123
         4         0.1678      0.0276      0.1388     -0.0147      0.3211     -0.0265
         5        -0.1241     -0.0149     -0.0604     -0.0078     -0.2033      0.1337
         6        -0.0061     -0.0098      0.2647     -0.0163      0.0997     -0.0599
         7         0.1488      0.0052      0.3916     -0.0094      0.0139      0.0302
         8         0.1035      0.0130      0.0676     -0.0223      0.0107     -0.0293
         9        -0.0113      0.0022      0.0018      0.0092     -0.0182     -0.0038
        10        -0.4667     -0.0335      1.5044      0.1344     -0.0117      0.1397
 <0|del|b> * <b|rxdel|0> + <0|del|b> * <b|delr+rdel|0>
 Rotatory Strengths (R) in cgs (10**-40 erg-esu-cm/Gauss)
       state          XX          YY          ZZ    R(velocity)    E-M Angle
         1       -47.6449    108.6329     11.8836     24.2905       82.92
         2         0.0994     -0.1427     -0.0134     -0.0189       90.00
         3         3.4180     -6.3333     -2.5183     -1.8112      102.87
         4        -5.9821     -9.5653    -11.1535     -8.9003      108.98
         5        15.6640      2.5989     14.2101     10.8243       64.58
         6        -2.2925     10.7781     -2.6785      1.9357       85.60
         7         2.2629      3.3063     -3.9357      0.5445       88.71
         8         0.3358     -0.4337     -0.4928     -0.1969       95.50
         9         1.0709     -0.4112     -0.3069      0.1176       90.00
        10       -30.0722     59.9099      5.1292     11.6556       74.52
 1/2[<0|r|b>*<b|rxdel|0> + (<0|rxdel|b>*<b|r|0>)*]
 Rotatory Strengths (R) in cgs (10**-40 erg-esu-cm/Gauss)
       state          XX          YY          ZZ     R(length)
         1       -18.7333      9.8063    109.2790     33.4507
         2         0.3918     -0.3848     -6.0601     -2.0177
         3         8.3400    -12.3365      0.4348     -1.1872
         4      -116.6893     11.7625     18.0750    -28.9506
         5        93.5657     27.5829    -26.6989     31.4833
         6        -0.7499     -0.3943      9.1334      2.6631
         7         0.8162     10.3823     11.0256      7.4080
         8         8.8228     48.2978     -0.2899     18.9436
         9      -103.2669      3.5585      0.1370    -33.1904
        10       -36.6780      1.1163     35.9644      0.1342
  1/2[<0|del|b>*<b|r|0> + (<0|r|b>*<b|del|0>)*] (Au)
       state          X           Y           Z        Dip. S.   Osc.(frdel)
         1         0.0016     -0.0001     -0.4849      0.4834      0.3223
         2         0.0000      0.0000     -0.0000     -0.0000     -0.0000
         3         0.0004      0.0003     -0.0008      0.0001      0.0000
         4        -0.0017      0.0002     -0.0186      0.0201      0.0134
         5        -0.0005     -0.0008     -0.0088      0.0102      0.0068
         6        -0.0033     -0.0000     -0.1161      0.1195      0.0797
         7         0.0181      0.0003     -0.0447      0.0262      0.0175
         8         0.0013     -0.0001     -0.0003     -0.0009     -0.0006
         9        -0.0001     -0.0001     -0.0001      0.0003      0.0002
        10         0.0018     -0.0002     -0.2492      0.2475      0.1650

 Excitation energies and oscillator strengths:
 
 Excited state symmetry could not be determined.
 Excited State   1:      Singlet-?Sym    2.9572 eV  419.26 nm  f=0.8342  <S**2>=0.000
      20 -> 75        -0.00013
      20 -> 76        -0.00021
      20 -> 77        -0.00026
      20 -> 78        -0.00010
      20 -> 80        -0.00033
      20 -> 82        -0.00023
      20 -> 84        -0.00036
      20 -> 85        -0.00046
      20 -> 86         0.00016
      20 -> 87         0.00056
      20 -> 88         0.00070
      20 -> 89        -0.00092
      20 -> 90        -0.00115
      20 -> 91         0.00029
      20 -> 92         0.00024
      20 -> 94         0.00012
      20 -> 96         0.00019
      20 -> 98        -0.00022
      20 ->100        -0.00047
      20 ->101        -0.00053
      20 ->102         0.00013
      20 ->103        -0.00030
      20 ->104         0.00028
      20 ->105         0.00017
      20 ->106         0.00018
      20 ->107        -0.00015
      20 ->109        -0.00020
      20 ->112         0.00017
      20 ->120         0.00011
      20 ->121         0.00017
      20 ->122         0.00012
      20 ->123         0.00010
      20 ->126        -0.00021
      20 ->129        -0.00012
      20 ->130         0.00013
      20 ->134         0.00010
      20 ->136         0.00024
      20 ->139        -0.00010
      20 ->148         0.00013
      20 ->152        -0.00012
      20 ->153        -0.00013
      20 ->155         0.00015
      20 ->158        -0.00010
      20 ->168         0.00018
      20 ->175        -0.00010
      20 ->176         0.00017
      20 ->182        -0.00011
      20 ->185         0.00012
      20 ->187        -0.00018
      20 ->191         0.00015
      20 ->193         0.00012
      20 ->194        -0.00017
      20 ->195         0.00015
      20 ->196         0.00027
      20 ->197         0.00016
      20 ->218         0.00010
      20 ->284         0.00013
      21 -> 71         0.00014
      21 -> 74         0.00020
      21 -> 75         0.00050
      21 -> 76         0.00090
      21 -> 77        -0.00058
      21 -> 78        -0.00059
      21 -> 79         0.00017
      21 -> 80        -0.00039
      21 -> 81         0.00019
      21 -> 83         0.00026
      21 -> 84        -0.00067
      21 -> 85        -0.00017
      21 -> 86         0.00030
      21 -> 87         0.00038
      21 -> 89         0.00014
      21 -> 90         0.00021
      21 -> 91        -0.00033
      21 -> 92        -0.00036
      21 -> 98         0.00046
      21 -> 99         0.00033
      21 ->102        -0.00013
      21 ->106        -0.00034
      21 ->108        -0.00017
      21 ->112         0.00011
      21 ->117        -0.00010
      21 ->118         0.00012
      21 ->120         0.00010
      21 ->123         0.00012
      21 ->125        -0.00011
      21 ->129         0.00013
      21 ->130         0.00010
      21 ->146         0.00011
      21 ->149        -0.00013
      21 ->156        -0.00010
      21 ->162        -0.00011
      21 ->165         0.00012
      21 ->167         0.00013
      21 ->171         0.00013
      21 ->176         0.00014
      21 ->182        -0.00011
      21 ->199         0.00010
      22 -> 74        -0.00023
      22 -> 75         0.00016
      22 -> 77         0.00013
      22 -> 80        -0.00020
      22 -> 82        -0.00020
      22 -> 83        -0.00010
      22 -> 85        -0.00018
      22 -> 86        -0.00043
      22 -> 87         0.00027
      22 -> 89         0.00032
      22 -> 90        -0.00041
      22 -> 91        -0.00018
      22 -> 92         0.00017
      22 -> 93        -0.00017
      22 -> 94         0.00035
      22 -> 96         0.00022
      22 -> 97        -0.00037
      22 -> 99        -0.00056
      22 ->103        -0.00013
      22 ->106        -0.00052
      22 ->108        -0.00021
      22 ->109         0.00036
      22 ->110        -0.00028
      22 ->112         0.00019
      22 ->113        -0.00027
      22 ->114         0.00032
      22 ->115         0.00010
      22 ->116        -0.00013
      22 ->118         0.00021
      22 ->119         0.00011
      22 ->122        -0.00011
      22 ->123         0.00012
      22 ->125        -0.00026
      22 ->126         0.00024
      22 ->128        -0.00010
      22 ->129        -0.00016
      22 ->130         0.00040
      22 ->131         0.00012
      22 ->132         0.00035
      22 ->133        -0.00051
      22 ->134        -0.00061
      22 ->139        -0.00023
      22 ->140         0.00013
      22 ->149         0.00013
      22 ->155         0.00013
      22 ->164        -0.00012
      22 ->168         0.00011
      22 ->170         0.00011
      22 ->171        -0.00018
      22 ->177        -0.00021
      22 ->187         0.00011
      22 ->194         0.00014
      22 ->195         0.00015
      22 ->196         0.00030
      22 ->198        -0.00021
      22 ->199        -0.00030
      22 ->201         0.00042
      22 ->202        -0.00015
      22 ->205         0.00033
      22 ->206         0.00024
      22 ->211         0.00011
      22 ->232        -0.00011
      22 ->245         0.00012
      22 ->249         0.00013
      22 ->266        -0.00012
      22 ->270        -0.00017
      22 ->271         0.00021
      22 ->287        -0.00014
      23 -> 67         0.00030
      23 -> 68         0.00034
      23 -> 69        -0.00018
      23 -> 71        -0.00013
      23 -> 72         0.00021
      23 -> 74         0.00026
      23 -> 75        -0.00120
      23 -> 76        -0.00125
      23 -> 77        -0.00058
      23 -> 78         0.00023
      23 -> 79        -0.00014
      23 -> 80         0.00022
      23 -> 81        -0.00046
      23 -> 82        -0.00024
      23 -> 83        -0.00015
      23 -> 84         0.00020
      23 -> 87         0.00069
      23 -> 88         0.00054
      23 -> 89        -0.00039
      23 -> 90         0.00033
      23 -> 91        -0.00075
      23 -> 93         0.00028
      23 -> 94        -0.00099
      23 -> 96        -0.00050
      23 -> 97         0.00051
      23 -> 98         0.00049
      23 -> 99        -0.00051
      23 ->100        -0.00027
      23 ->102        -0.00081
      23 ->104         0.00013
      23 ->105        -0.00021
      23 ->110        -0.00060
      23 ->113        -0.00017
      23 ->114         0.00036
      23 ->115         0.00016
      23 ->117         0.00016
      23 ->118        -0.00010
      23 ->122         0.00017
      23 ->126         0.00013
      23 ->134         0.00011
      23 ->139        -0.00012
      23 ->143         0.00011
      23 ->150         0.00015
      23 ->153         0.00020
      23 ->154        -0.00034
      23 ->155        -0.00019
      23 ->159        -0.00021
      23 ->160        -0.00017
      23 ->162         0.00013
      23 ->164         0.00020
      23 ->166        -0.00013
      23 ->175        -0.00034
      23 ->177         0.00015
      23 ->196         0.00017
      23 ->197        -0.00014
      23 ->199        -0.00031
      23 ->204        -0.00011
      23 ->220         0.00010
      23 ->223        -0.00011
      23 ->229         0.00011
      24 -> 67        -0.00027
      24 -> 68        -0.00012
      24 -> 69        -0.00020
      24 -> 72        -0.00029
      24 -> 73        -0.00198
      24 -> 74        -0.00039
      24 -> 75        -0.00102
      24 -> 76         0.00022
      24 -> 77        -0.00031
      24 -> 78        -0.00018
      24 -> 79        -0.00020
      24 -> 81         0.00072
      24 -> 82         0.00025
      24 -> 83         0.00075
      24 -> 85         0.00040
      24 -> 87         0.00012
      24 -> 88         0.00020
      24 -> 89        -0.00040
      24 -> 91        -0.00056
      24 -> 93         0.00035
      24 -> 94        -0.00087
      24 -> 95         0.00021
      24 -> 97         0.00051
      24 -> 98        -0.00103
      24 -> 99        -0.00088
      24 ->100        -0.00049
      24 ->101        -0.00073
      24 ->102         0.00036
      24 ->104        -0.00016
      24 ->105        -0.00012
      24 ->107         0.00086
      24 ->113        -0.00020
      24 ->114         0.00017
      24 ->116         0.00028
      24 ->118         0.00016
      24 ->120        -0.00015
      24 ->121        -0.00024
      24 ->122        -0.00034
      24 ->123        -0.00016
      24 ->124        -0.00022
      24 ->125        -0.00013
      24 ->126         0.00034
      24 ->128        -0.00016
      24 ->132        -0.00016
      24 ->133         0.00021
      24 ->136        -0.00011
      24 ->139        -0.00030
      24 ->141         0.00012
      24 ->144        -0.00036
      24 ->146        -0.00017
      24 ->147         0.00056
      24 ->148        -0.00032
      24 ->150        -0.00014
      24 ->152         0.00045
      24 ->154         0.00016
      24 ->155        -0.00051
      24 ->157         0.00016
      24 ->158         0.00026
      24 ->159         0.00016
      24 ->160         0.00017
      24 ->161         0.00011
      24 ->162         0.00013
      24 ->163         0.00024
      24 ->166         0.00011
      24 ->167        -0.00022
      24 ->171        -0.00015
      24 ->173         0.00012
      24 ->177         0.00013
      24 ->178        -0.00021
      24 ->194        -0.00012
      24 ->195         0.00022
      24 ->198         0.00012
      24 ->199        -0.00017
      24 ->216         0.00023
      24 ->220        -0.00014
      24 ->221         0.00014
      24 ->223        -0.00016
      24 ->227         0.00010
      25 -> 67        -0.00014
      25 -> 69        -0.00044
      25 -> 70        -0.00023
      25 -> 71        -0.00029
      25 -> 72        -0.00060
      25 -> 73        -0.00270
      25 -> 74        -0.00024
      25 -> 75        -0.00061
      25 -> 76         0.00117
      25 -> 77         0.00091
      25 -> 78         0.00014
      25 -> 79        -0.00038
      25 -> 80        -0.00067
      25 -> 81         0.00031
      25 -> 82        -0.00068
      25 -> 83        -0.00012
      25 -> 84         0.00038
      25 -> 85        -0.00020
      25 -> 86        -0.00021
      25 -> 87        -0.00035
      25 -> 89        -0.00028
      25 -> 90         0.00027
      25 -> 92        -0.00039
      25 -> 93        -0.00029
      25 -> 94         0.00029
      25 -> 95        -0.00011
      25 -> 96         0.00024
      25 -> 97        -0.00075
      25 -> 98         0.00045
      25 -> 99         0.00051
      25 ->100         0.00021
      25 ->101         0.00052
      25 ->102        -0.00060
      25 ->103         0.00017
      25 ->105         0.00035
      25 ->107         0.00074
      25 ->108        -0.00010
      25 ->109        -0.00053
      25 ->110         0.00024
      25 ->112         0.00050
      25 ->114         0.00014
      25 ->116         0.00027
      25 ->121         0.00014
      25 ->123         0.00016
      25 ->125         0.00014
      25 ->126        -0.00025
      25 ->128        -0.00029
      25 ->129         0.00017
      25 ->132         0.00022
      25 ->138         0.00011
      25 ->139         0.00015
      25 ->142         0.00011
      25 ->144        -0.00031
      25 ->146        -0.00041
      25 ->147         0.00077
      25 ->148         0.00011
      25 ->149        -0.00061
      25 ->150        -0.00032
      25 ->151         0.00016
      25 ->152        -0.00016
      25 ->153        -0.00010
      25 ->155         0.00026
      25 ->156        -0.00016
      25 ->158        -0.00013
      25 ->159         0.00031
      25 ->160        -0.00011
      25 ->161         0.00011
      25 ->162         0.00021
      25 ->163        -0.00022
      25 ->164         0.00021
      25 ->166        -0.00020
      25 ->169        -0.00031
      25 ->176        -0.00015
      25 ->177        -0.00016
      25 ->178        -0.00012
      25 ->187         0.00016
      25 ->190        -0.00012
      25 ->194        -0.00015
      25 ->195         0.00023
      25 ->196        -0.00016
      25 ->198        -0.00010
      25 ->217         0.00014
      25 ->220         0.00010
      25 ->225        -0.00015
      25 ->227         0.00011
      25 ->228         0.00014
      25 ->252        -0.00011
      25 ->285        -0.00011
      26 -> 68        -0.00012
      26 -> 69         0.00046
      26 -> 70        -0.00016
      26 -> 71         0.00043
      26 -> 72         0.00050
      26 -> 73         0.00176
      26 -> 74         0.00037
      26 -> 75         0.00087
      26 -> 76         0.00024
      26 -> 77        -0.00010
      26 -> 78        -0.00022
      26 -> 79         0.00022
      26 -> 82         0.00033
      26 -> 83        -0.00028
      26 -> 84         0.00020
      26 -> 85         0.00044
      26 -> 86         0.00022
      26 -> 87         0.00017
      26 -> 88        -0.00144
      26 -> 89        -0.00137
      26 -> 90         0.00049
      26 -> 92        -0.00056
      26 -> 93        -0.00020
      26 -> 94        -0.00029
      26 -> 95         0.00055
      26 -> 96         0.00030
      26 -> 97        -0.00043
      26 -> 98        -0.00057
      26 -> 99        -0.00055
      26 ->101         0.00023
      26 ->102        -0.00039
      26 ->103        -0.00032
      26 ->104         0.00026
      26 ->105         0.00010
      26 ->106        -0.00042
      26 ->107         0.00079
      26 ->108        -0.00029
      26 ->109         0.00013
      26 ->110        -0.00036
      26 ->111         0.00030
      26 ->113         0.00021
      26 ->114        -0.00012
      26 ->115         0.00028
      26 ->116         0.00023
      26 ->117        -0.00016
      26 ->119        -0.00011
      26 ->121        -0.00031
      26 ->122        -0.00025
      26 ->124         0.00027
      26 ->126        -0.00043
      26 ->127        -0.00010
      26 ->128         0.00026
      26 ->129        -0.00036
      26 ->130         0.00018
      26 ->132        -0.00018
      26 ->139         0.00015
      26 ->141        -0.00019
      26 ->142         0.00014
      26 ->147        -0.00041
      26 ->148         0.00045
      26 ->150         0.00020
      26 ->151         0.00019
      26 ->152         0.00031
      26 ->153        -0.00022
      26 ->155         0.00019
      26 ->158         0.00014
      26 ->159        -0.00022
      26 ->161        -0.00022
      26 ->162        -0.00035
      26 ->164        -0.00028
      26 ->166         0.00018
      26 ->167        -0.00025
      26 ->173         0.00014
      26 ->176         0.00031
      26 ->178         0.00018
      26 ->182        -0.00012
      26 ->187        -0.00013
      26 ->195        -0.00012
      26 ->211        -0.00013
      26 ->212         0.00015
      26 ->223         0.00014
      27 -> 67        -0.00020
      27 -> 69        -0.00010
      27 -> 72         0.00013
      27 -> 74        -0.00124
      27 -> 75         0.00025
      27 -> 77        -0.00074
      27 -> 78        -0.00062
      27 -> 80         0.00022
      27 -> 81         0.00080
      27 -> 82         0.00095
      27 -> 83         0.00124
      27 -> 84        -0.00115
      27 -> 85         0.00043
      27 -> 86         0.00031
      27 -> 87         0.00046
      27 -> 88         0.00111
      27 -> 89         0.00070
      27 -> 90         0.00010
      27 -> 91        -0.00032
      27 -> 92         0.00056
      27 -> 93         0.00047
      27 -> 94        -0.00027
      27 -> 97         0.00021
      27 -> 98        -0.00072
      27 ->100        -0.00108
      27 ->101        -0.00118
      27 ->102         0.00022
      27 ->106         0.00031
      27 ->109         0.00052
      27 ->110         0.00011
      27 ->112        -0.00058
      27 ->113        -0.00044
      27 ->117        -0.00022
      27 ->118         0.00063
      27 ->119         0.00027
      27 ->120        -0.00021
      27 ->121        -0.00055
      27 ->122        -0.00020
      27 ->123         0.00010
      27 ->125        -0.00047
      27 ->126         0.00042
      27 ->129         0.00048
      27 ->130         0.00038
      27 ->131         0.00033
      27 ->132        -0.00044
      27 ->133         0.00066
      27 ->134         0.00021
      27 ->136        -0.00040
      27 ->137         0.00020
      27 ->139        -0.00047
      27 ->144        -0.00012
      27 ->146         0.00020
      27 ->148        -0.00042
      27 ->149         0.00032
      27 ->152         0.00042
      27 ->153         0.00060
      27 ->154        -0.00029
      27 ->155        -0.00041
      27 ->157         0.00021
      27 ->161        -0.00019
      27 ->162         0.00023
      27 ->163         0.00033
      27 ->165         0.00026
      27 ->166         0.00022
      27 ->167        -0.00015
      27 ->168         0.00015
      27 ->169         0.00011
      27 ->171        -0.00033
      27 ->175        -0.00024
      27 ->178        -0.00019
      27 ->196        -0.00011
      27 ->198         0.00022
      27 ->201         0.00021
      27 ->208        -0.00015
      27 ->212        -0.00010
      27 ->218         0.00014
      27 ->220        -0.00013
      28 -> 67        -0.00033
      28 -> 69        -0.00036
      28 -> 73        -0.00126
      28 -> 74        -0.00068
      28 -> 75        -0.00020
      28 -> 76         0.00143
      28 -> 77        -0.00033
      28 -> 78        -0.00080
      28 -> 80         0.00038
      28 -> 82         0.00087
      28 -> 83        -0.00051
      28 -> 84         0.00074
      28 -> 85         0.00113
      28 -> 86         0.00077
      28 -> 87        -0.00062
      28 -> 88        -0.00189
      28 -> 89        -0.00146
      28 -> 90         0.00013
      28 -> 91         0.00072
      28 -> 92        -0.00076
      28 -> 93        -0.00033
      28 -> 95         0.00049
      28 -> 96        -0.00020
      28 -> 97         0.00046
      28 -> 98         0.00046
      28 -> 99        -0.00116
      28 ->100         0.00017
      28 ->101         0.00029
      28 ->102         0.00057
      28 ->103        -0.00103
      28 ->104        -0.00019
      28 ->105        -0.00057
      28 ->106        -0.00107
      28 ->107        -0.00032
      28 ->109         0.00063
      28 ->110        -0.00080
      28 ->111        -0.00016
      28 ->112        -0.00011
      28 ->114        -0.00048
      28 ->115        -0.00052
      28 ->117        -0.00020
      28 ->118         0.00066
      28 ->119         0.00018
      28 ->120        -0.00050
      28 ->121        -0.00043
      28 ->122        -0.00033
      28 ->123        -0.00027
      28 ->124        -0.00013
      28 ->126        -0.00086
      28 ->128        -0.00062
      28 ->129        -0.00047
      28 ->130         0.00030
      28 ->134         0.00021
      28 ->135        -0.00014
      28 ->136         0.00047
      28 ->137        -0.00023
      28 ->139         0.00035
      28 ->141        -0.00033
      28 ->142         0.00013
      28 ->143        -0.00037
      28 ->144         0.00017
      28 ->146         0.00014
      28 ->147         0.00010
      28 ->148         0.00017
      28 ->149        -0.00070
      28 ->151         0.00052
      28 ->152         0.00039
      28 ->153        -0.00072
      28 ->154         0.00033
      28 ->155        -0.00036
      28 ->156         0.00025
      28 ->159         0.00017
      28 ->160         0.00023
      28 ->163        -0.00019
      28 ->164        -0.00051
      28 ->165        -0.00021
      28 ->167        -0.00012
      28 ->168         0.00064
      28 ->169         0.00012
      28 ->170        -0.00020
      28 ->172        -0.00020
      28 ->173         0.00043
      28 ->174        -0.00021
      28 ->175         0.00054
      28 ->177         0.00015
      28 ->181         0.00013
      28 ->187        -0.00014
      28 ->193         0.00014
      28 ->194        -0.00010
      28 ->195         0.00010
      28 ->198         0.00011
      28 ->202        -0.00017
      28 ->204         0.00015
      28 ->212        -0.00015
      28 ->217        -0.00012
      28 ->223         0.00011
      28 ->228         0.00010
      28 ->257        -0.00011
      28 ->260         0.00010
      29 -> 67         0.00046
      29 -> 69         0.00031
      29 -> 70         0.00020
      29 -> 71         0.00017
      29 -> 72         0.00016
      29 -> 73         0.00092
      29 -> 74        -0.00020
      29 -> 75         0.00035
      29 -> 76        -0.00084
      29 -> 78        -0.00074
      29 -> 79         0.00019
      29 -> 80        -0.00039
      29 -> 81        -0.00067
      29 -> 83         0.00013
      29 -> 85         0.00098
      29 -> 86         0.00019
      29 -> 87        -0.00041
      29 -> 88         0.00112
      29 -> 89         0.00021
      29 -> 90         0.00043
      29 -> 91         0.00034
      29 -> 92        -0.00029
      29 -> 93        -0.00046
      29 -> 94         0.00030
      29 -> 95        -0.00060
      29 -> 96         0.00025
      29 -> 97         0.00024
      29 ->101        -0.00022
      29 ->102         0.00033
      29 ->103         0.00083
      29 ->104        -0.00030
      29 ->106         0.00027
      29 ->107         0.00063
      29 ->108        -0.00025
      29 ->109         0.00032
      29 ->110         0.00019
      29 ->111        -0.00033
      29 ->112         0.00032
      29 ->113        -0.00031
      29 ->117        -0.00053
      29 ->118         0.00084
      29 ->119        -0.00056
      29 ->123        -0.00024
      29 ->124         0.00015
      29 ->126        -0.00049
      29 ->129        -0.00048
      29 ->130         0.00017
      29 ->132         0.00035
      29 ->133        -0.00016
      29 ->134         0.00013
      29 ->136         0.00037
      29 ->138         0.00015
      29 ->139         0.00022
      29 ->141        -0.00028
      29 ->144        -0.00046
      29 ->146         0.00034
      29 ->147        -0.00026
      29 ->149        -0.00027
      29 ->150         0.00026
      29 ->151         0.00011
      29 ->153         0.00014
      29 ->155         0.00021
      29 ->156         0.00011
      29 ->157        -0.00018
      29 ->158         0.00026
      29 ->160        -0.00011
      29 ->163        -0.00015
      29 ->164        -0.00039
      29 ->166         0.00027
      29 ->167        -0.00018
      29 ->170         0.00020
      29 ->173        -0.00014
      29 ->178         0.00012
      29 ->183         0.00014
      29 ->187        -0.00012
      29 ->189         0.00011
      29 ->199        -0.00010
      29 ->220        -0.00012
      30 -> 67        -0.00012
      30 -> 68         0.00020
      30 -> 69        -0.00014
      30 -> 70         0.00034
      30 -> 71        -0.00022
      30 -> 72         0.00063
      30 -> 73         0.00156
      30 -> 74        -0.00114
      30 -> 75         0.00047
      30 -> 76        -0.00061
      30 -> 77        -0.00118
      30 -> 78        -0.00015
      30 -> 80         0.00058
      30 -> 81         0.00032
      30 -> 82         0.00064
      30 -> 83        -0.00015
      30 -> 84         0.00024
      30 -> 85        -0.00029
      30 -> 86         0.00062
      30 -> 87        -0.00167
      30 -> 88         0.00098
      30 -> 89         0.00029
      30 -> 90        -0.00019
      30 -> 92        -0.00018
      30 -> 93         0.00016
      30 -> 95         0.00013
      30 -> 96         0.00024
      30 -> 98         0.00032
      30 -> 99        -0.00011
      30 ->103         0.00069
      30 ->104        -0.00057
      30 ->105        -0.00017
      30 ->107         0.00089
      30 ->109         0.00012
      30 ->110         0.00076
      30 ->111        -0.00051
      30 ->112        -0.00027
      30 ->113        -0.00056
      30 ->114         0.00015
      30 ->115         0.00018
      30 ->116         0.00027
      30 ->117        -0.00020
      30 ->118         0.00036
      30 ->119         0.00103
      30 ->120        -0.00022
      30 ->121        -0.00030
      30 ->122         0.00011
      30 ->125         0.00014
      30 ->126        -0.00091
      30 ->129        -0.00086
      30 ->130         0.00024
      30 ->131        -0.00014
      30 ->132         0.00028
      30 ->133        -0.00011
      30 ->135         0.00012
      30 ->136         0.00038
      30 ->138         0.00052
      30 ->139         0.00018
      30 ->140         0.00012
      30 ->141        -0.00019
      30 ->142         0.00030
      30 ->143        -0.00046
      30 ->146        -0.00017
      30 ->147        -0.00019
      30 ->149         0.00018
      30 ->150         0.00032
      30 ->151        -0.00019
      30 ->152        -0.00040
      30 ->153        -0.00038
      30 ->154        -0.00023
      30 ->155         0.00016
      30 ->157        -0.00020
      30 ->158         0.00023
      30 ->159         0.00017
      30 ->161         0.00019
      30 ->162        -0.00010
      30 ->164        -0.00051
      30 ->165         0.00017
      30 ->166         0.00029
      30 ->168        -0.00018
      30 ->170        -0.00018
      30 ->172        -0.00012
      30 ->175        -0.00016
      30 ->176         0.00010
      30 ->178         0.00011
      30 ->183         0.00018
      30 ->185         0.00017
      30 ->187        -0.00020
      30 ->196         0.00013
      30 ->199        -0.00012
      30 ->204        -0.00022
      30 ->212        -0.00011
      30 ->213        -0.00010
      30 ->221         0.00014
      31 -> 67         0.00045
      31 -> 68         0.00047
      31 -> 69         0.00014
      31 -> 70         0.00023
      31 -> 71        -0.00010
      31 -> 72         0.00106
      31 -> 73         0.00188
      31 -> 74         0.00227
      31 -> 75         0.00043
      31 -> 76         0.00021
      31 -> 77        -0.00067
      31 -> 78        -0.00022
      31 -> 80         0.00049
      31 -> 81        -0.00042
      31 -> 82         0.00044
      31 -> 83        -0.00052
      31 -> 85         0.00040
      31 -> 86        -0.00152
      31 -> 87        -0.00097
      31 -> 88        -0.00113
      31 -> 89        -0.00151
      31 -> 90        -0.00029
      31 -> 91        -0.00031
      31 -> 92        -0.00207
      31 -> 93        -0.00057
      31 -> 94        -0.00041
      31 -> 95         0.00063
      31 -> 99        -0.00100
      31 ->101         0.00017
      31 ->102         0.00073
      31 ->103        -0.00199
      31 ->104         0.00016
      31 ->105        -0.00065
      31 ->106        -0.00080
      31 ->107         0.00058
      31 ->108        -0.00018
      31 ->109        -0.00123
      31 ->110        -0.00025
      31 ->111        -0.00037
      31 ->112         0.00149
      31 ->113         0.00047
      31 ->114        -0.00018
      31 ->115        -0.00035
      31 ->116         0.00051
      31 ->118        -0.00030
      31 ->119        -0.00019
      31 ->120        -0.00037
      31 ->122         0.00012
      31 ->123        -0.00034
      31 ->125        -0.00047
      31 ->126         0.00123
      31 ->128         0.00061
      31 ->129         0.00057
      31 ->130         0.00043
      31 ->131         0.00034
      31 ->132        -0.00047
      31 ->133         0.00042
      31 ->134         0.00016
      31 ->135         0.00020
      31 ->136        -0.00015
      31 ->137         0.00016
      31 ->138         0.00026
      31 ->139        -0.00023
      31 ->140         0.00023
      31 ->143         0.00033
      31 ->144        -0.00017
      31 ->147        -0.00029
      31 ->148        -0.00014
      31 ->149         0.00019
      31 ->150         0.00042
      31 ->152         0.00013
      31 ->153        -0.00023
      31 ->154        -0.00044
      31 ->155        -0.00026
      31 ->156         0.00035
      31 ->157        -0.00036
      31 ->158         0.00061
      31 ->159         0.00018
      31 ->160        -0.00010
      31 ->164        -0.00078
      31 ->166         0.00045
      31 ->167        -0.00030
      31 ->169         0.00017
      31 ->170        -0.00021
      31 ->172        -0.00021
      31 ->175         0.00023
      31 ->177         0.00023
      31 ->178         0.00027
      31 ->180        -0.00010
      31 ->181        -0.00019
      31 ->182         0.00018
      31 ->186        -0.00014
      31 ->187         0.00011
      31 ->195        -0.00029
      31 ->196        -0.00016
      31 ->197        -0.00010
      31 ->198         0.00024
      31 ->199         0.00014
      31 ->201         0.00011
      31 ->202        -0.00016
      31 ->203        -0.00017
      31 ->204         0.00039
      31 ->212        -0.00011
      31 ->213         0.00015
      31 ->218         0.00011
      31 ->222         0.00011
      31 ->223         0.00011
      31 ->226         0.00014
      31 ->253        -0.00011
      31 ->256        -0.00014
      32 -> 67        -0.00015
      32 -> 69        -0.00034
      32 -> 70         0.00044
      32 -> 71        -0.00029
      32 -> 73         0.00048
      32 -> 74        -0.00184
      32 -> 75        -0.00033
      32 -> 76        -0.00079
      32 -> 77         0.00133
      32 -> 78         0.00080
      32 -> 79        -0.00022
      32 -> 80         0.00129
      32 -> 81        -0.00112
      32 -> 83        -0.00086
      32 -> 84         0.00220
      32 -> 85         0.00096
      32 -> 86         0.00104
      32 -> 87        -0.00068
      32 -> 89        -0.00118
      32 -> 90         0.00124
      32 -> 91         0.00059
      32 -> 92        -0.00072
      32 -> 93        -0.00033
      32 -> 94         0.00010
      32 -> 95         0.00051
      32 -> 97        -0.00082
      32 -> 98         0.00150
      32 -> 99        -0.00029
      32 ->100         0.00010
      32 ->101         0.00055
      32 ->102        -0.00067
      32 ->103        -0.00053
      32 ->104         0.00056
      32 ->105         0.00066
      32 ->106        -0.00070
      32 ->107        -0.00033
      32 ->108        -0.00026
      32 ->109         0.00037
      32 ->110         0.00031
      32 ->111        -0.00053
      32 ->112         0.00093
      32 ->113        -0.00061
      32 ->114         0.00075
      32 ->115         0.00021
      32 ->116        -0.00053
      32 ->118         0.00034
      32 ->119         0.00043
      32 ->121        -0.00031
      32 ->122         0.00013
      32 ->123         0.00033
      32 ->125        -0.00052
      32 ->126         0.00028
      32 ->128         0.00033
      32 ->129         0.00048
      32 ->130        -0.00082
      32 ->131        -0.00013
      32 ->133         0.00041
      32 ->134         0.00020
      32 ->136        -0.00065
      32 ->137         0.00024
      32 ->139        -0.00046
      32 ->140        -0.00010
      32 ->142         0.00012
      32 ->144         0.00025
      32 ->145         0.00011
      32 ->147        -0.00010
      32 ->148         0.00068
      32 ->149        -0.00041
      32 ->150        -0.00022
      32 ->151         0.00015
      32 ->153         0.00020
      32 ->155         0.00075
      32 ->156        -0.00057
      32 ->157         0.00014
      32 ->158        -0.00015
      32 ->159        -0.00018
      32 ->160        -0.00028
      32 ->161         0.00036
      32 ->162        -0.00015
      32 ->163        -0.00036
      32 ->164        -0.00039
      32 ->166         0.00012
      32 ->168        -0.00012
      32 ->175         0.00024
      32 ->176        -0.00019
      32 ->177         0.00016
      32 ->182         0.00023
      32 ->186         0.00010
      32 ->191        -0.00010
      32 ->195        -0.00024
      32 ->196        -0.00021
      32 ->197        -0.00014
      32 ->198         0.00020
      32 ->202         0.00021
      32 ->203        -0.00014
      32 ->204         0.00029
      32 ->209        -0.00012
      32 ->211         0.00011
      32 ->223         0.00017
      32 ->228         0.00015
      32 ->241         0.00011
      32 ->256        -0.00019
      33 -> 67         0.00096
      33 -> 68         0.00021
      33 -> 71        -0.00031
      33 -> 72        -0.00089
      33 -> 73        -0.00079
      33 -> 74         0.00113
      33 -> 75        -0.00213
      33 -> 76        -0.00270
      33 -> 77        -0.00032
      33 -> 78         0.00041
      33 -> 79        -0.00012
      33 -> 80        -0.00041
      33 -> 81        -0.00067
      33 -> 82        -0.00170
      33 -> 83        -0.00029
      33 -> 84         0.00032
      33 -> 85        -0.00118
      33 -> 86         0.00098
      33 -> 87        -0.00053
      33 -> 88         0.00174
      33 -> 89         0.00040
      33 -> 90         0.00175
      33 -> 91         0.00198
      33 -> 92         0.00125
      33 -> 93         0.00097
      33 -> 94        -0.00048
      33 -> 95         0.00048
      33 -> 96        -0.00052
      33 -> 97        -0.00079
      33 -> 98         0.00016
      33 -> 99        -0.00088
      33 ->100         0.00060
      33 ->101         0.00072
      33 ->102        -0.00087
      33 ->103         0.00050
      33 ->104         0.00018
      33 ->105         0.00035
      33 ->107        -0.00013
      33 ->109         0.00046
      33 ->112        -0.00029
      33 ->113        -0.00067
      33 ->114         0.00056
      33 ->115         0.00047
      33 ->116        -0.00046
      33 ->117        -0.00018
      33 ->118         0.00086
      33 ->119         0.00068
      33 ->120         0.00076
      33 ->121         0.00039
      33 ->122         0.00055
      33 ->123         0.00068
      33 ->125         0.00056
      33 ->126        -0.00054
      33 ->128        -0.00014
      33 ->130         0.00026
      33 ->132        -0.00045
      33 ->133         0.00021
      33 ->134         0.00014
      33 ->136         0.00036
      33 ->140        -0.00015
      33 ->141         0.00027
      33 ->142        -0.00050
      33 ->143         0.00011
      33 ->144        -0.00016
      33 ->145        -0.00011
      33 ->146        -0.00050
      33 ->147         0.00012
      33 ->148        -0.00052
      33 ->149         0.00096
      33 ->150        -0.00041
      33 ->151        -0.00040
      33 ->152        -0.00056
      33 ->153         0.00014
      33 ->155         0.00024
      33 ->156        -0.00027
      33 ->158        -0.00056
      33 ->159         0.00022
      33 ->160         0.00018
      33 ->162         0.00027
      33 ->163         0.00057
      33 ->165        -0.00030
      33 ->166        -0.00034
      33 ->167         0.00013
      33 ->170         0.00035
      33 ->172         0.00017
      33 ->173        -0.00012
      33 ->175        -0.00028
      33 ->204        -0.00015
      33 ->206        -0.00013
      33 ->213        -0.00018
      33 ->215        -0.00016
      33 ->218        -0.00011
      33 ->223        -0.00024
      33 ->245        -0.00013
      33 ->248        -0.00012
      33 ->253         0.00014
      33 ->263        -0.00012
      33 ->274         0.00010
      34 -> 67         0.00077
      34 -> 68        -0.00014
      34 -> 71         0.00021
      34 -> 72        -0.00082
      34 -> 73        -0.00230
      34 -> 74         0.00155
      34 -> 75        -0.00070
      34 -> 76         0.00035
      34 -> 77        -0.00161
      34 -> 78         0.00188
      34 -> 79        -0.00046
      34 -> 80        -0.00160
      34 -> 81        -0.00105
      34 -> 82         0.00016
      34 -> 83        -0.00014
      34 -> 84         0.00092
      34 -> 85         0.00141
      34 -> 86         0.00148
      34 -> 87         0.00067
      34 -> 88        -0.00157
      34 -> 89         0.00036
      34 -> 90         0.00051
      34 -> 91         0.00117
      34 -> 92         0.00082
      34 -> 93        -0.00103
      34 -> 94         0.00081
      34 -> 95        -0.00149
      34 -> 96        -0.00055
      34 -> 97         0.00043
      34 -> 98        -0.00035
      34 -> 99        -0.00044
      34 ->100         0.00083
      34 ->101        -0.00043
      34 ->102         0.00058
      34 ->103         0.00067
      34 ->104         0.00015
      34 ->106        -0.00067
      34 ->107        -0.00046
      34 ->109         0.00019
      34 ->110        -0.00030
      34 ->112         0.00017
      34 ->113         0.00021
      34 ->114         0.00027
      34 ->115         0.00046
      34 ->116        -0.00011
      34 ->117         0.00052
      34 ->118        -0.00040
      34 ->119         0.00050
      34 ->120         0.00029
      34 ->121         0.00071
      34 ->122        -0.00040
      34 ->123        -0.00030
      34 ->124         0.00016
      34 ->126         0.00042
      34 ->129         0.00040
      34 ->130         0.00017
      34 ->131         0.00039
      34 ->133         0.00015
      34 ->134         0.00019
      34 ->135        -0.00018
      34 ->138        -0.00061
      34 ->139        -0.00022
      34 ->141         0.00038
      34 ->142         0.00033
      34 ->143         0.00028
      34 ->146         0.00017
      34 ->147         0.00018
      34 ->148         0.00052
      34 ->149        -0.00074
      34 ->152         0.00054
      34 ->153         0.00048
      34 ->154         0.00056
      34 ->155        -0.00016
      34 ->156         0.00049
      34 ->158        -0.00041
      34 ->162        -0.00011
      34 ->166        -0.00014
      34 ->167        -0.00012
      34 ->168         0.00028
      34 ->170         0.00011
      34 ->172        -0.00012
      34 ->173         0.00014
      34 ->175         0.00024
      34 ->176        -0.00016
      34 ->181         0.00017
      34 ->182         0.00018
      34 ->185        -0.00013
      34 ->196        -0.00012
      34 ->197        -0.00011
      34 ->201         0.00012
      34 ->202         0.00024
      34 ->209        -0.00014
      34 ->215         0.00020
      34 ->216        -0.00011
      34 ->223         0.00013
      34 ->256        -0.00010
      35 -> 67        -0.00121
      35 -> 69        -0.00045
      35 -> 70        -0.00034
      35 -> 71        -0.00021
      35 -> 72         0.00053
      35 -> 73        -0.00271
      35 -> 74         0.00077
      35 -> 75         0.00037
      35 -> 76         0.00123
      35 -> 77         0.00059
      35 -> 78        -0.00238
      35 -> 79         0.00023
      35 -> 80         0.00206
      35 -> 81         0.00157
      35 -> 82         0.00074
      35 -> 83        -0.00057
      35 -> 84         0.00093
      35 -> 85        -0.00043
      35 -> 86         0.00164
      35 -> 87         0.00054
      35 -> 88        -0.00374
      35 -> 89         0.00040
      35 -> 90        -0.00143
      35 -> 91        -0.00047
      35 -> 92         0.00070
      35 -> 93         0.00035
      35 -> 94         0.00065
      35 -> 97         0.00031
      35 -> 98         0.00086
      35 -> 99        -0.00034
      35 ->101         0.00069
      35 ->102         0.00024
      35 ->103        -0.00075
      35 ->104        -0.00041
      35 ->105        -0.00064
      35 ->106         0.00061
      35 ->107        -0.00060
      35 ->108         0.00039
      35 ->110        -0.00069
      35 ->112         0.00024
      35 ->113         0.00020
      35 ->114         0.00020
      35 ->115         0.00036
      35 ->116         0.00013
      35 ->119        -0.00059
      35 ->121        -0.00015
      35 ->122         0.00054
      35 ->123         0.00021
      35 ->124        -0.00032
      35 ->125         0.00011
      35 ->126         0.00060
      35 ->129         0.00019
      35 ->130        -0.00016
      35 ->131        -0.00023
      35 ->132        -0.00029
      35 ->133         0.00017
      35 ->134        -0.00023
      35 ->136        -0.00045
      35 ->137        -0.00021
      35 ->138        -0.00025
      35 ->139        -0.00065
      35 ->140         0.00013
      35 ->141        -0.00037
      35 ->142        -0.00019
      35 ->143         0.00014
      35 ->144         0.00013
      35 ->145         0.00027
      35 ->146        -0.00030
      35 ->148         0.00022
      35 ->149        -0.00043
      35 ->150        -0.00037
      35 ->151         0.00042
      35 ->153        -0.00080
      35 ->154         0.00040
      35 ->155        -0.00057
      35 ->156        -0.00041
      35 ->157         0.00037
      35 ->159        -0.00050
      35 ->160         0.00031
      35 ->163        -0.00012
      35 ->164         0.00015
      35 ->167         0.00023
      35 ->168         0.00015
      35 ->169         0.00011
      35 ->170        -0.00043
      35 ->171         0.00012
      35 ->173         0.00024
      35 ->174        -0.00014
      35 ->175         0.00037
      35 ->176        -0.00013
      35 ->181         0.00014
      35 ->182         0.00013
      35 ->183        -0.00014
      35 ->186         0.00012
      35 ->189        -0.00012
      35 ->191        -0.00011
      35 ->196        -0.00020
      35 ->197        -0.00012
      35 ->202         0.00020
      35 ->203        -0.00019
      35 ->205         0.00011
      35 ->206         0.00019
      35 ->211        -0.00012
      35 ->214         0.00015
      35 ->216        -0.00011
      35 ->219         0.00010
      35 ->227        -0.00012
      35 ->235        -0.00012
      35 ->245         0.00013
      35 ->254        -0.00011
      35 ->260         0.00013
      36 -> 67         0.00063
      36 -> 68         0.00054
      36 -> 69        -0.00093
      36 -> 71        -0.00050
      36 -> 72        -0.00034
      36 -> 73        -0.00240
      36 -> 74        -0.00100
      36 -> 75         0.00121
      36 -> 76        -0.00288
      36 -> 77         0.00176
      36 -> 78         0.00226
      36 -> 79        -0.00026
      36 -> 80         0.00021
      36 -> 81        -0.00037
      36 -> 82        -0.00019
      36 -> 83         0.00080
      36 -> 84        -0.00047
      36 -> 85        -0.00015
      36 -> 87         0.00414
      36 -> 88        -0.00017
      36 -> 89        -0.00098
      36 -> 90        -0.00061
      36 -> 92         0.00078
      36 -> 93         0.00029
      36 -> 94        -0.00122
      36 -> 95         0.00068
      36 -> 96        -0.00044
      36 -> 97         0.00097
      36 -> 98         0.00070
[...]
      66 ->242         0.00047
      66 ->243        -0.00033
      66 ->248        -0.00011
      66 ->249         0.00012
      66 ->250        -0.00032
      66 ->251         0.00011
      66 ->252        -0.00034
      66 ->253         0.00027
      66 ->256        -0.00013
      66 ->259         0.00013
      66 ->260        -0.00012
 SavETr:  write IOETrn=   770 NScale= 10 NData=  16 NLR=1 NState=   10 LETran=     190.

 **********************************************************************

            Population analysis using the SCF density.

 **********************************************************************

 Alpha  occ. eigenvalues --  -19.37108 -19.26367 -19.26207 -14.66509 -14.49957
 Alpha  occ. eigenvalues --  -14.49432 -14.41980 -10.34049 -10.34007 -10.33562
 Alpha  occ. eigenvalues --  -10.32292 -10.31768 -10.31560 -10.29356 -10.27823
 Alpha  occ. eigenvalues --  -10.27612 -10.27428 -10.26417 -10.26321  -1.32515
 Alpha  occ. eigenvalues --   -1.30339  -1.14461  -1.02038  -1.01399  -1.01072
 Alpha  occ. eigenvalues --   -0.94305  -0.93700  -0.90115  -0.83793  -0.83569
 Alpha  occ. eigenvalues --   -0.78508  -0.76548  -0.74591  -0.70123  -0.69454
 Alpha  occ. eigenvalues --   -0.66154  -0.63393  -0.62747  -0.62323  -0.61024
 Alpha  occ. eigenvalues --   -0.60203  -0.59607  -0.58630  -0.57957  -0.56947
 Alpha  occ. eigenvalues --   -0.52818  -0.51138  -0.50031  -0.49401  -0.48891
 Alpha  occ. eigenvalues --   -0.47423  -0.46932  -0.46125  -0.44892  -0.42373
 Alpha  occ. eigenvalues --   -0.42021  -0.41182  -0.40033  -0.38674  -0.38442
 Alpha  occ. eigenvalues --   -0.38221  -0.36617  -0.36339  -0.32205  -0.31755
 Alpha  occ. eigenvalues --   -0.25525
 Alpha virt. eigenvalues --   -0.07750  -0.01617   0.02955   0.04028   0.05152
 Alpha virt. eigenvalues --    0.09477   0.13963   0.14507   0.16012   0.16061
 Alpha virt. eigenvalues --    0.17273   0.18125   0.20449   0.21771   0.22780
 Alpha virt. eigenvalues --    0.23130   0.24527   0.25514   0.27139   0.28238
 Alpha virt. eigenvalues --    0.29879   0.31225   0.32463   0.33821   0.34954
 Alpha virt. eigenvalues --    0.37861   0.38467   0.40627   0.41199   0.42683
 Alpha virt. eigenvalues --    0.43953   0.45933   0.48613   0.52967   0.53114
 Alpha virt. eigenvalues --    0.54207   0.55285   0.56530   0.57201   0.57852
 Alpha virt. eigenvalues --    0.58644   0.60980   0.61147   0.61549   0.62819
 Alpha virt. eigenvalues --    0.62920   0.63630   0.64132   0.65014   0.65451
 Alpha virt. eigenvalues --    0.66360   0.67051   0.67622   0.67894   0.69705
 Alpha virt. eigenvalues --    0.70559   0.71592   0.72677   0.73395   0.74256
 Alpha virt. eigenvalues --    0.76152   0.76511   0.77552   0.78147   0.78521
 Alpha virt. eigenvalues --    0.80068   0.81992   0.82761   0.84158   0.84507
 Alpha virt. eigenvalues --    0.86158   0.87266   0.88905   0.90272   0.90657
 Alpha virt. eigenvalues --    0.91604   0.92824   0.93732   0.95452   0.96013
 Alpha virt. eigenvalues --    0.96843   0.97908   0.98866   0.99760   1.01197
 Alpha virt. eigenvalues --    1.02393   1.02871   1.03446   1.05026   1.05880
 Alpha virt. eigenvalues --    1.06331   1.06550   1.07631   1.08841   1.12660
 Alpha virt. eigenvalues --    1.13120   1.13978   1.15083   1.17394   1.18851
 Alpha virt. eigenvalues --    1.22153   1.23824   1.24090   1.26545   1.27807
 Alpha virt. eigenvalues --    1.29228   1.31021   1.32282   1.33206   1.35209
 Alpha virt. eigenvalues --    1.36661   1.39164   1.40949   1.42093   1.42423
 Alpha virt. eigenvalues --    1.43939   1.45675   1.46801   1.49252   1.50336
 Alpha virt. eigenvalues --    1.51682   1.52379   1.52920   1.53872   1.55274
 Alpha virt. eigenvalues --    1.57238   1.57587   1.59580   1.62849   1.65823
 Alpha virt. eigenvalues --    1.70673   1.71948   1.72636   1.75689   1.78992
 Alpha virt. eigenvalues --    1.80304   1.80615   1.83710   1.85279   1.86456
 Alpha virt. eigenvalues --    1.87005   1.87487   1.88175   1.89538   1.92802
 Alpha virt. eigenvalues --    1.93444   1.96321   1.97429   1.98008   1.99442
 Alpha virt. eigenvalues --    1.99980   2.02047   2.03028   2.04626   2.05878
 Alpha virt. eigenvalues --    2.08438   2.10207   2.11515   2.13087   2.14456
 Alpha virt. eigenvalues --    2.15928   2.16788   2.18900   2.20149   2.21393
 Alpha virt. eigenvalues --    2.22748   2.23954   2.24789   2.24965   2.26549
 Alpha virt. eigenvalues --    2.28953   2.29808   2.33085   2.35384   2.36746
 Alpha virt. eigenvalues --    2.39028   2.40086   2.41206   2.47914   2.48574
 Alpha virt. eigenvalues --    2.49793   2.52499   2.53954   2.55125   2.57768
 Alpha virt. eigenvalues --    2.58610   2.62573   2.63541   2.64898   2.67355
 Alpha virt. eigenvalues --    2.69640   2.70174   2.71317   2.72514   2.75174
 Alpha virt. eigenvalues --    2.78252   2.80237   2.81366   2.83435   2.86414
 Alpha virt. eigenvalues --    2.86617   2.89610   2.92985   2.95509   2.96497
 Alpha virt. eigenvalues --    2.99443   3.01271   3.01843   3.07283   3.11191
 Alpha virt. eigenvalues --    3.13136   3.16318   3.27853   3.42120   3.44516
 Alpha virt. eigenvalues --    3.54846   3.68521   3.85595   3.91069   4.00378
 Alpha virt. eigenvalues --    4.06363   4.13237   4.15342   4.16723   4.17520
 Alpha virt. eigenvalues --    4.18844   4.23489   4.32156   4.35777   4.40091
 Alpha virt. eigenvalues --    4.40875   4.43016   4.54834   4.76083   4.88496
          Condensed to atoms (all electrons):
               1          2          3          4          5          6
     1  C    4.888202   0.309109   0.504996   0.021228  -0.088225   0.352137
     2  C    0.309109   4.997911   0.008507   0.344149   0.376522  -0.051135
     3  C    0.504996   0.008507   5.143556  -0.066536   0.009181  -0.078874
     4  C    0.021228   0.344149  -0.066536   4.964898  -0.067356   0.009408
     5  N   -0.088225   0.376522   0.009181  -0.067356   6.966568  -0.011915
     6  C    0.352137  -0.051135  -0.078874   0.009408  -0.011915   4.837105
     7  C    0.003085  -0.068687   0.382351  -0.021008  -0.001343   0.006859
     8  H   -0.032446   0.004976   0.364370   0.000221  -0.000068  -0.009117
     9  C   -0.059568   0.031958   0.003564   0.265906   0.014737  -0.000713
    10  N    0.014414  -0.067531  -0.001696   0.383292  -0.097839   0.000055
    11  O    0.004213  -0.075354  -0.000050  -0.078484   0.124542  -0.000149
    12  C   -0.043655   0.007208  -0.014123  -0.000125  -0.000027   0.519975
    13  C   -0.037914  -0.017032   0.006875  -0.000076  -0.006420   0.513137
    14  H    0.003142  -0.000001  -0.027084   0.006162  -0.000002  -0.000088
    15  N   -0.000216   0.004745   0.004338  -0.043105  -0.000062   0.000003
    16  C    0.006402  -0.000121   0.000584   0.000000  -0.000008  -0.030048
    17  H   -0.010917  -0.000158   0.005260   0.000010  -0.000001  -0.038369
    18  C    0.006131   0.000415  -0.000168   0.000000  -0.000032  -0.026897
    19  H   -0.012178   0.002783  -0.000265   0.000283   0.011652  -0.036602
    20  O   -0.000010  -0.000017   0.001178   0.004517   0.000000  -0.000000
    21  O   -0.000021   0.000238   0.000010  -0.012038  -0.000009  -0.000000
    22  C    0.000597  -0.000011  -0.000003   0.000000   0.000007  -0.026295
    23  H   -0.000175   0.000002   0.000000  -0.000000  -0.000000   0.003029
    24  H   -0.000159  -0.000003   0.000001  -0.000000  -0.000007   0.002973
    25  N   -0.000005  -0.000000  -0.000000   0.000000   0.000000   0.000312
    26  H   -0.000000  -0.000000   0.000000  -0.000000   0.000000   0.000003
    27  H   -0.000000  -0.000000  -0.000000  -0.000000  -0.000000   0.000002
               7          8          9         10         11         12
     1  C    0.003085  -0.032446  -0.059568   0.014414   0.004213  -0.043655
     2  C   -0.068687   0.004976   0.031958  -0.067531  -0.075354   0.007208
     3  C    0.382351   0.364370   0.003564  -0.001696  -0.000050  -0.014123
     4  C   -0.021008   0.000221   0.265906   0.383292  -0.078484  -0.000125
     5  N   -0.001343  -0.000068   0.014737  -0.097839   0.124542  -0.000027
     6  C    0.006859  -0.009117  -0.000713   0.000055  -0.000149   0.519975
     7  C    5.113611  -0.032965   0.468466   0.009109  -0.000046   0.000334
     8  H   -0.032965   0.507938   0.003446  -0.000002   0.000001   0.005504
     9  C    0.468466   0.003446   5.094964  -0.097249   0.004743   0.000001
    10  N    0.009109  -0.000002  -0.097249   7.004040   0.111677  -0.000000
    11  O   -0.000046   0.000001   0.004743   0.111677   8.098791   0.000001
    12  C    0.000334   0.005504   0.000001  -0.000000   0.000001   4.964831
    13  C   -0.000160  -0.000040   0.000001  -0.000019   0.000161  -0.055691
    14  H    0.351041  -0.004257  -0.028488  -0.000042   0.000001   0.000002
    15  N   -0.063005  -0.000055   0.168661  -0.008292  -0.000044  -0.000000
    16  C   -0.000006   0.000115   0.000000  -0.000000  -0.000000   0.527947
    17  H    0.000167   0.002711  -0.000013   0.000000  -0.000000   0.356650
    18  C    0.000001  -0.000002   0.000000  -0.000000  -0.000001  -0.045047
    19  H    0.000013  -0.000003  -0.000018   0.000044  -0.000226   0.005395
    20  O    0.002065  -0.000003  -0.107321  -0.000020   0.000000   0.000000
    21  O    0.008988   0.000001  -0.072775   0.000423   0.000163   0.000000
    22  C   -0.000000  -0.000009   0.000000   0.000000  -0.000000  -0.018805
    23  H    0.000000   0.000005  -0.000000   0.000000   0.000000  -0.032152
    24  H   -0.000000   0.000000  -0.000000  -0.000000   0.000000   0.000462
    25  N    0.000000  -0.000000  -0.000000   0.000000  -0.000000   0.005338
    26  H   -0.000000   0.000000   0.000000   0.000000   0.000000  -0.000147
    27  H   -0.000000  -0.000000   0.000000  -0.000000   0.000000   0.000009
              13         14         15         16         17         18
     1  C   -0.037914   0.003142  -0.000216   0.006402  -0.010917   0.006131
     2  C   -0.017032  -0.000001   0.004745  -0.000121  -0.000158   0.000415
     3  C    0.006875  -0.027084   0.004338   0.000584   0.005260  -0.000168
     4  C   -0.000076   0.006162  -0.043105   0.000000   0.000010   0.000000
     5  N   -0.006420  -0.000002  -0.000062  -0.000008  -0.000001  -0.000032
     6  C    0.513137  -0.000088   0.000003  -0.030048  -0.038369  -0.026897
     7  C   -0.000160   0.351041  -0.063005  -0.000006   0.000167   0.000001
     8  H   -0.000040  -0.004257  -0.000055   0.000115   0.002711  -0.000002
     9  C    0.000001  -0.028488   0.168661   0.000000  -0.000013   0.000000
    10  N   -0.000019  -0.000042  -0.008292  -0.000000   0.000000  -0.000000
    11  O    0.000161   0.000001  -0.000044  -0.000000  -0.000000  -0.000001
    12  C   -0.055691   0.000002  -0.000000   0.527947   0.356650  -0.045047
    13  C    4.980953   0.000001  -0.000000  -0.044769   0.005319   0.524389
    14  H    0.000001   0.477781  -0.013115  -0.000000   0.000005  -0.000000
    15  N   -0.000000  -0.013115   5.936096  -0.000000  -0.000000   0.000000
    16  C   -0.044769  -0.000000  -0.000000   4.994943  -0.033378  -0.045716
    17  H    0.005319   0.000005  -0.000000  -0.033378   0.547318   0.000509
    18  C    0.524389  -0.000000   0.000000  -0.045716   0.000509   4.997968
    19  H    0.355610   0.000000   0.000000   0.000447  -0.000139  -0.033526
    20  O    0.000000   0.019077   0.331037   0.000000   0.000000   0.000000
    21  O   -0.000000   0.000179   0.302615   0.000000   0.000000   0.000000
    22  C   -0.017936  -0.000000   0.000000   0.536425   0.003148   0.536895
    23  H    0.000414   0.000000  -0.000000   0.359141  -0.005018   0.005235
    24  H   -0.032692   0.000000  -0.000000   0.005248   0.000014   0.359791
    25  N    0.005373   0.000000  -0.000000  -0.073310  -0.000110  -0.073261
    26  H    0.000031   0.000000   0.000000   0.004818   0.000003  -0.006715
    27  H   -0.000138   0.000000   0.000000  -0.006792  -0.000008   0.004814
              19         20         21         22         23         24
     1  C   -0.012178  -0.000010  -0.000021   0.000597  -0.000175  -0.000159
     2  C    0.002783  -0.000017   0.000238  -0.000011   0.000002  -0.000003
     3  C   -0.000265   0.001178   0.000010  -0.000003   0.000000   0.000001
     4  C    0.000283   0.004517  -0.012038   0.000000  -0.000000  -0.000000
     5  N    0.011652   0.000000  -0.000009   0.000007  -0.000000  -0.000007
     6  C   -0.036602  -0.000000  -0.000000  -0.026295   0.003029   0.002973
     7  C    0.000013   0.002065   0.008988  -0.000000   0.000000  -0.000000
     8  H   -0.000003  -0.000003   0.000001  -0.000009   0.000005   0.000000
     9  C   -0.000018  -0.107321  -0.072775   0.000000  -0.000000  -0.000000
    10  N    0.000044  -0.000020   0.000423   0.000000   0.000000  -0.000000
    11  O   -0.000226   0.000000   0.000163  -0.000000   0.000000   0.000000
    12  C    0.005395   0.000000   0.000000  -0.018805  -0.032152   0.000462
    13  C    0.355610   0.000000  -0.000000  -0.017936   0.000414  -0.032692
    14  H    0.000000   0.019077   0.000179  -0.000000   0.000000   0.000000
    15  N    0.000000   0.331037   0.302615   0.000000  -0.000000  -0.000000
    16  C    0.000447   0.000000   0.000000   0.536425   0.359141   0.005248
    17  H   -0.000139   0.000000   0.000000   0.003148  -0.005018   0.000014
    18  C   -0.033526   0.000000   0.000000   0.536895   0.005235   0.359791
    19  H    0.535712  -0.000000   0.000000   0.003217   0.000013  -0.004937
    20  O   -0.000000   8.284034  -0.103842  -0.000000   0.000000   0.000000
    21  O    0.000000  -0.103842   8.303056  -0.000000   0.000000  -0.000000
    22  C    0.003217  -0.000000  -0.000000   4.446918  -0.039382  -0.039615
    23  H    0.000013   0.000000   0.000000  -0.039382   0.552440  -0.000143
    24  H   -0.004937   0.000000  -0.000000  -0.039615  -0.000143   0.553408
    25  N   -0.000105   0.000000   0.000000   0.328770  -0.006944  -0.006972
    26  H   -0.000008  -0.000000  -0.000000  -0.021358  -0.000095   0.004700
    27  H    0.000003  -0.000000  -0.000000  -0.021330   0.004741  -0.000094
              25         26         27
     1  C   -0.000005  -0.000000  -0.000000
     2  C   -0.000000  -0.000000  -0.000000
     3  C   -0.000000   0.000000  -0.000000
     4  C    0.000000  -0.000000  -0.000000
     5  N    0.000000   0.000000  -0.000000
     6  C    0.000312   0.000003   0.000002
     7  C    0.000000  -0.000000  -0.000000
     8  H   -0.000000   0.000000  -0.000000
     9  C   -0.000000   0.000000   0.000000
    10  N    0.000000   0.000000  -0.000000
    11  O   -0.000000   0.000000   0.000000
    12  C    0.005338  -0.000147   0.000009
    13  C    0.005373   0.000031  -0.000138
    14  H    0.000000   0.000000   0.000000
    15  N   -0.000000   0.000000   0.000000
    16  C   -0.073310   0.004818  -0.006792
    17  H   -0.000110   0.000003  -0.000008
    18  C   -0.073261  -0.006715   0.004814
    19  H   -0.000105  -0.000008   0.000003
    20  O    0.000000  -0.000000  -0.000000
    21  O    0.000000  -0.000000  -0.000000
    22  C    0.328770  -0.021358  -0.021330
    23  H   -0.006944  -0.000095   0.004741
    24  H   -0.006972   0.004700  -0.000094
    25  N    6.989620   0.320761   0.320826
    26  H    0.320761   0.365872  -0.025339
    27  H    0.320826  -0.025339   0.365975
 Mulliken charges:
               1
     1  C    0.171831
     2  C    0.191528
     3  C   -0.245971
     4  C    0.288654
     5  N   -0.229896
     6  C    0.065206
     7  C   -0.158872
     8  H    0.189678
     9  C    0.309695
    10  N   -0.250367
    11  O   -0.189938
    12  C   -0.183885
    13  C   -0.179377
    14  H    0.215686
    15  N    0.380397
    16  C   -0.201923
    17  H    0.166995
    18  C   -0.204784
    19  H    0.172836
    20  O   -0.430695
    21  O   -0.426989
    22  C    0.328766
    23  H    0.158888
    24  H    0.158026
    25  N   -0.810295
    26  H    0.357473
    27  H    0.357331
 Sum of Mulliken charges =  -0.00000
 Mulliken charges with hydrogens summed into heavy atoms:
               1
     1  C    0.171831
     2  C    0.191528
     3  C   -0.056292
     4  C    0.288654
     5  N   -0.229896
     6  C    0.065206
     7  C    0.056813
     9  C    0.309695
    10  N   -0.250367
    11  O   -0.189938
    12  C   -0.016890
    13  C   -0.006541
    15  N    0.380397
    16  C   -0.043035
    18  C   -0.046758
    20  O   -0.430695
    21  O   -0.426989
    22  C    0.328766
    25  N   -0.095490
 Electronic spatial extent (au):  <R**2>=           6097.9188
 Charge=              0.0000 electrons
 Dipole moment (field-independent basis, Debye):
    X=             -3.6987    Y=             -0.1762    Z=            -11.7080  Tot=             12.2796
 Quadrupole moment (field-independent basis, Debye-Ang):
   XX=           -104.9834   YY=           -107.2987   ZZ=           -106.2129
   XY=              5.0905   XZ=             -2.9446   YZ=              7.7446
 Traceless Quadrupole moment (field-independent basis, Debye-Ang):
   XX=              1.1816   YY=             -1.1337   ZZ=             -0.0479
   XY=              5.0905   XZ=             -2.9446   YZ=              7.7446
 Octapole moment (field-independent basis, Debye-Ang**2):
  XXX=            -21.9835  YYY=             14.7892  ZZZ=           -423.5969  XYY=              3.7368
  XXY=             10.7845  XXZ=            -39.7307  XZZ=             18.1722  YZZ=            -39.2821
  YYZ=             22.3190  XYZ=             -7.6844
 Hexadecapole moment (field-independent basis, Debye-Ang**3):
 XXXX=          -1199.8757 YYYY=           -165.6517 ZZZZ=          -5687.7072 XXXY=             71.6221
 XXXZ=             -4.9474 YYYX=             49.7065 YYYZ=              9.6716 ZZZX=             16.8081
 ZZZY=            297.5206 XXYY=           -229.5390 XXZZ=          -1256.7857 YYZZ=          -1117.2125
 XXYZ=             13.5054 YYXZ=             -4.0144 ZZXY=            108.6228
 N-N= 1.318494255106D+03 E-N=-4.748256844238D+03  KE= 8.984354301602D+02

 Test job not archived.
 1\1\GINC-CN194\SP\RCAM-B3LYP TDA-FC\6-31G(d)\C12H8N4O3\AKHANNA2\23-Jul
 -2025\0\\# p TDA(nstates=10, root=1) CAM-B3LYP/6-31G(d) geom=allcheck 
 guess=read nosymm scrf=check iop(9/40=4)\\p_nitro_biphenyl_single_nbd_
 aniline_derivative\\0,1\C,0,-0.3813074563,0.0220221103,-0.2434500286\C
 ,0,0.7588681779,-0.2052528691,0.615081466\C,0,-1.5614033164,0.24916472
 7,0.4269850852\C,0,0.6752326279,-0.1923702283,2.0467461473\N,0,2.00046
 52225,-0.4777155077,0.2861243021\C,0,-0.2891149422,-0.0028938003,-1.70
 37606477\C,0,-1.6647550504,0.2621324605,1.8422258853\H,0,-2.4623991601
 ,0.4575386039,-0.1361272257\C,0,-0.5908824157,0.0555444686,2.657353517
 \N,0,1.8648788434,-0.4467438305,2.5404553569\O,0,2.6602477761,-0.61690
 53659,1.45036265\C,0,-1.4021717369,-0.3676450441,-2.4797030084\C,0,0.8
 857495717,0.3539980235,-2.3855084198\H,0,-2.6270569284,0.4550234378,2.
 2998954529\N,0,-0.7504770444,0.0903048093,4.0889268165\C,0,-1.35192551
 68,-0.3744928563,-3.858389356\H,0,-2.3176716372,-0.6871381695,-1.99302
 6471\C,0,0.9424124939,0.3606848638,-3.765291192\H,0,1.7666154323,0.645
 1062767,-1.8268419827\O,0,-1.8677206032,0.3069520159,4.5456066723\O,0,
 0.2456119873,-0.099801002,4.7758843172\C,0,-0.1760665222,-0.0032039377
 ,-4.533037791\H,0,-2.2236451522,-0.6771334764,-4.4305801225\H,0,1.8596
 454053,0.6549235056,-4.2663964281\N,0,-0.1363891933,0.0461840396,-5.90
 60636204\H,0,0.7760146827,0.0171618475,-6.3400121874\H,0,-0.8327239154
 ,-0.490163752,-6.4050487276\\Version=ES64L-G16RevA.03\HF=-906.1740781\
 RMSD=2.630e-09\PG=C01 [X(C12H8N4O3)]\\@


 I am not a vegetarian because I love animals;
 I am a vegetarian because I hate plants.
                               -- A. Whitney Brown
 Job cpu time:       0 days  0 hours 31 minutes 56.5 seconds.
 Elapsed time:       0 days  0 hours  2 minutes  6.9 seconds.
 File lengths (MBytes):  RWF=    829 Int=      0 D2E=      0 Chk=     67 Scr=      1
 Normal termination of Gaussian 16 at Wed Jul 23 12:47:04 2025.
